LAMMPS (3 Mar 2020)
  using 1 OpenMP thread(s) per MPI task
Reading data file ...
  orthogonal box = (0 0 0) to (24 24 24)
  2 by 2 by 2 MPI processor grid
  reading atoms ...
  1503 atoms
  scanning bonds ...
  2 = max bonds/atom
  scanning angles ...
  1 = max angles/atom
  reading bonds ...
  1002 bonds
  reading angles ...
  501 angles
Finding 1-2 1-3 1-4 neighbors ...
  special bond factors lj:   0          0          0         
  special bond factors coul: 0          0          0         
  2 = max # of 1-2 neighbors
  1 = max # of 1-3 neighbors
  1 = max # of 1-4 neighbors
  2 = max # of special neighbors
  special bonds CPU = 0.00117842 secs
  read_data CPU = 0.00745115 secs
Setting atom values ...
  1 settings made for charge
Setting atom values ...
  2 settings made for charge
Finding SHAKE clusters ...
  0 = # of size 2 clusters
  0 = # of size 3 clusters
  0 = # of size 4 clusters
  501 = # of frozen angles
  find clusters CPU = 0.00035562 secs
PPPM initialization ...
  using 12-bit tables for long-range coulomb (src/kspace.cpp:332)
  G vector (1/distance) = 0.315108
  grid = 24 24 24
  stencil order = 5
  estimated absolute RMS force accuracy = 0.0017115
  estimated relative force accuracy = 5.15414e-06
  using double precision MKL FFT
  3d grid and FFT values/proc = 6859 1728
Neighbor list info ...
  update every 1 steps, delay 10 steps, check yes
  max neighbors/atom: 2000, page size: 100000
  master list distance cutoff = 12
  ghost atom cutoff = 12
  binsize = 6, bins = 4 4 4
  3 neighbor lists, perpetual/occasional/extra = 3 0 0
  (1) pair lj/cut/coul/long, perpetual, skip from (3)
      attributes: half, newton on
      pair build: skip
      stencil: none
      bin: none
  (2) pair lj/cut/coul/long/soft, perpetual, skip from (3)
      attributes: half, newton on
      pair build: skip
      stencil: none
      bin: none
  (3) neighbor class addition, perpetual
      attributes: half, newton on
      pair build: half/bin/newton
      stencil: half/bin/3d/newton
      bin: standard
Per MPI rank memory allocation (min/avg/max) = 9.728 | 9.729 | 9.73 Mbytes
Step TotEng PotEng E_coul E_long E_vdwl 
       0   -5532.323656934812   -5532.323656934812   25114.893370919053  -31801.783198538902    1154.566170685040 
    1000   -5542.022638437506   -5542.022638437506   25112.724572083382  -31795.237842904553    1140.490632383666 
    2000   -5535.410866124435   -5535.410866124435   25198.868999383820  -31804.306223028569    1070.026357520314 
    3000   -5584.391607044679   -5584.391607044679   25091.443018772683  -31799.276821949054    1123.442196131695 
    4000   -5511.501211695904   -5511.501211695904   25258.970915710357  -31799.142798521243    1028.670671114977 
    5000   -5515.120522786339   -5515.120522786339   25131.098406367739  -31795.157667844433    1148.938738690359 
    6000   -5499.397226199588   -5499.397226199588   25224.124278954187  -31799.243404288609    1075.721899134837 
    7000   -5564.769943498679   -5564.769943498679   25145.587991743905  -31800.614893898903    1090.256958656317 
    8000   -5508.490346397481   -5508.490346397481   25168.533843967445  -31799.235871795132    1122.211681430211 
    9000   -5506.639682985013   -5506.639682985013   25192.254437823933  -31797.193623081228    1098.299502272280 
   10000   -5510.296521490414   -5510.296521490414   25179.738307351094  -31799.741993488944    1109.707164647431 
   11000   -5509.833399198717   -5509.833399198717   25191.176035290933  -31801.180151393040    1100.170716903391 
   12000   -5539.639699701478   -5539.639699701478   25130.961765264656  -31802.373526609677    1131.772061643544 
   13000   -5500.956499609103   -5500.956499609103   25194.146216341316  -31800.432950525090    1105.330234574671 
   14000   -5524.825373792639   -5524.825373792639   25173.109077564826  -31801.882154865150    1103.947703507691 
   15000   -5540.351344406856   -5540.351344406856   25122.204312276786  -31798.678158831470    1136.122502147826 
   16000   -5597.476109489147   -5597.476109489147   25010.426798611348  -31802.616835755874    1194.713927655381 
   17000   -5546.428768620099   -5546.428768620099   25189.572833396596  -31798.955837925994    1062.954235909296 
   18000   -5517.462537317740   -5517.462537317740   25153.667484297563  -31800.875402123627    1129.745380508323 
   19000   -5561.701395678934   -5561.701395678934   25098.188899919202  -31799.787259597091    1139.896963998955 
   20000   -5493.524529153758   -5493.524529153758   25199.245668140757  -31798.122736007630    1105.352538713115 
   21000   -5500.771639735001   -5500.771639735001   25239.465111966056  -31797.418598756551    1057.181847055494 
   22000   -5537.566045324998   -5537.566045324998   25122.787048059676  -31796.414861972178    1136.061768587503 
   23000   -5494.751612650252   -5494.751612650252   25162.740223163553  -31801.151273903910    1143.659438090103 
   24000   -5527.575679695372   -5527.575679695372   25158.362538660793  -31801.736745042905    1115.798526686737 
   25000   -5564.923243873003   -5564.923243873003   25092.553634203112  -31799.128746723476    1141.651868647359 
   26000   -5607.303145597692   -5607.303145597692   25024.061072593711  -31805.157183015948    1173.792964824545 
   27000   -5526.507516081070   -5526.507516081070   25162.710776304441  -31800.844338785504    1111.626046399998 
   28000   -5464.314935891358   -5464.314935891358   25218.899494902380  -31799.335729079055    1116.121298285316 
   29000   -5453.812553730095   -5453.812553730095   25281.566328438508  -31798.907135923633    1063.528253755035 
   30000   -5524.932439165994   -5524.932439165994   25179.134160143214  -31797.440034031850    1093.373434722643 
   31000   -5499.518611147636   -5499.518611147636   25228.010363002290  -31795.534525956893    1068.005551806970 
   32000   -5528.429949403027   -5528.429949403027   25137.003488134775  -31801.950295352995    1136.516857815189 
   33000   -5495.622171149462   -5495.622171149462   25172.937563463358  -31797.721833766405    1129.162099153584 
   34000   -5505.776494026257   -5505.776494026257   25226.814566318135  -31798.829889463581    1066.238829119187 
   35000   -5524.892764231925   -5524.892764231925   25231.935986463846  -31799.428143982957    1042.599393287185 
   36000   -5498.389087744054   -5498.389087744054   25213.223253182674  -31799.657209696117    1088.044868769393 
   37000   -5578.753281853591   -5578.753281853591   25099.331447315792  -31802.529192279530    1124.444463110148 
   38000   -5524.580395530262   -5524.580395530262   25122.174422455719  -31805.502909901661    1158.748091915680 
   39000   -5492.527163997111   -5492.527163997111   25217.561953063821  -31804.143128445066    1094.054011384135 
   40000   -5503.707338322234   -5503.707338322234   25252.912407463151  -31798.323246399505    1041.703500614119 
   41000   -5540.611408490375   -5540.611408490375   25191.605684534119  -31802.777088317653    1070.559995293160 
   42000   -5515.272497237278   -5515.272497237278   25146.301629741425  -31800.461236134804    1138.887109156099 
   43000   -5558.799025283930   -5558.799025283930   25120.411942092847  -31801.003258715769    1121.792291338993 
   44000   -5545.281282140175   -5545.281282140175   25214.375214277203  -31802.578422954211    1042.921926536836 
   45000   -5505.772684727221   -5505.772684727221   25215.198736806116  -31804.289352016633    1083.317930483292 
   46000   -5520.631496220496   -5520.631496220496   25168.432833929895  -31800.876060188872    1111.811730038483 
   47000   -5535.698597993876   -5535.698597993876   25162.518217098430  -31802.282248127143    1104.065433034834 
   48000   -5549.493148442307   -5549.493148442307   25147.056151876612  -31797.769595389891    1101.220295070978 
   49000   -5452.145387578934   -5452.145387578934   25257.541895058879  -31798.704014938656    1089.016732300843 
   50000   -5521.229508316726   -5521.229508316726   25188.444772050683  -31799.262626178766    1089.588345811360 
   51000   -5421.054814583171   -5421.054814583171   25370.687923236677  -31792.649582179332    1000.906844359486 
   52000   -5500.221715757885   -5500.221715757885   25233.106736693688  -31796.271674729142    1062.943222277566 
   53000   -5617.566055080591   -5617.566055080591   25017.683895491307  -31799.092168540039    1163.842217968142 
   54000   -5466.371277719769   -5466.371277719769   25248.604078896340  -31798.461271360597    1083.485914744489 
   55000   -5549.506845864493   -5549.506845864493   25156.457481422247  -31799.140192402261    1093.175865115521 
   56000   -5448.319146505164   -5448.319146505164   25244.433226215369  -31799.557080927923    1106.804708207387 
   57000   -5592.557778542825   -5592.557778542825   25026.015494985153  -31796.537793468618    1177.964519940644 
   58000   -5495.326523291584   -5495.326523291584   25219.155529708511  -31801.591433823061    1087.109380822967 
   59000   -5487.835402185479   -5487.835402185479   25202.449411135560  -31797.292697626603    1107.007884305562 
   60000   -5484.522889677930   -5484.522889677930   25224.435092632018  -31793.295755760097    1084.337773450148 
   61000   -5541.073216866327   -5541.073216866327   25175.014481741622  -31798.290524056010    1082.202825448062 
   62000   -5479.245082774189   -5479.245082774189   25221.535552283087  -31796.440886080778    1095.660251023503 
   63000   -5495.781746337605   -5495.781746337605   25295.176181056213  -31795.320241458026    1004.362314064209 
   64000   -5514.848204086942   -5514.848204086942   25127.416797462574  -31803.031179657988    1160.766178108476 
   65000   -5436.268477763871   -5436.268477763871   25230.277627700074  -31800.136160951690    1133.590055487746 
   66000   -5502.898657769263   -5502.898657769263   25169.110221145944  -31800.846765345290    1128.837886430081 
   67000   -5537.020635360121   -5537.020635360121   25171.730223241731  -31799.184311600533    1090.433452998679 
   68000   -5507.217063366719   -5507.217063366719   25162.727532224606  -31799.001096624561    1129.056501033236 
   69000   -5513.278132424533   -5513.278132424533   25253.309693308649  -31801.078805160203    1034.490979427014 
   70000   -5513.428749753188   -5513.428749753188   25223.818048745321  -31798.982826351479    1061.736027852973 
   71000   -5531.600187163847   -5531.600187163847   25202.526052117239  -31800.643190609047    1066.516951327967 
   72000   -5518.248766007498   -5518.248766007498   25179.563151934006  -31798.445294983292    1100.633377041785 
   73000   -5545.417499418370   -5545.417499418370   25091.546716988778  -31797.324812670282    1160.360596263138 
   74000   -5573.356746410358   -5573.356746410358   25140.704755890729  -31800.329429406007    1086.267927104922 
   75000   -5498.606518984918   -5498.606518984918   25206.969903494464  -31792.441177950372    1086.864755470990 
   76000   -5483.038900454492   -5483.038900454492   25186.863272295901  -31797.307635485806    1127.405462735417 
   77000   -5524.326344086017   -5524.326344086017   25163.967140402470  -31796.091978082346    1107.798493593856 
   78000   -5469.229711844546   -5469.229711844546   25228.407945956620  -31795.121717591548    1097.484059790377 
   79000   -5530.994891787173   -5530.994891787173   25163.510937207750  -31794.835428440081    1100.329599445161 
   80000   -5537.496630056670   -5537.496630056670   25225.282166958656  -31802.947509751695    1040.168712736371 
   81000   -5493.070776724784   -5493.070776724784   25198.619671197739  -31799.314446853579    1107.623998931055 
   82000   -5554.225761451286   -5554.225761451286   25163.474167261542  -31797.768326494337    1080.068397781510 
   83000   -5460.304404126902   -5460.304404126902   25266.660348544145  -31796.767000787389    1069.802248116344 
   84000   -5516.862262829400   -5516.862262829400   25250.069854510286  -31800.820885097346    1033.888767757659 
   85000   -5506.453308120592   -5506.453308120592   25243.619119038409  -31801.369161174091    1051.296734015089 
   86000   -5513.366029539062   -5513.366029539062   25209.913209431339  -31799.960003361452    1076.680764391050 
   87000   -5543.001442457105   -5543.001442457105   25130.936824493256  -31800.172752144761    1126.234485194404 
   88000   -5535.137751685095   -5535.137751685095   25237.185923350193  -31798.934256728273    1026.610581692982 
   89000   -5514.267653834744   -5514.267653834744   25134.315420295654  -31802.388481231334    1153.805407100939 
   90000   -5586.005292765753   -5586.005292765753   25076.383193437920  -31802.149122431205    1139.760636227530 
   91000   -5568.744115817397   -5568.744115817397   25042.133452438164  -31796.219971024584    1185.342402769024 
   92000   -5545.300532310604   -5545.300532310604   25200.716707964813  -31801.536976040163    1055.519735764747 
   93000   -5464.286838666401   -5464.286838666401   25173.389293483640  -31802.921511759079    1165.245379609038 
   94000   -5557.592664202195   -5557.592664202195   25150.686743827860  -31802.256740708322    1093.977332678268 
   95000   -5556.414688142748   -5556.414688142748   25193.034892726981  -31800.735605439062    1051.286024569333 
   96000   -5535.794171597234   -5535.794171597234   25171.803537237283  -31801.298968866686    1093.701260032162 
   97000   -5535.467024781723   -5535.467024781723   25198.979317586880  -31799.990934169979    1065.544591801375 
   98000   -5536.354286673228   -5536.354286673228   25225.403285730717  -31797.758380979296    1036.000808575345 
   99000   -5534.592485946596   -5534.592485946596   25255.330814683806  -31798.709006158715    1008.785705528314 
  100000   -5542.479372388323   -5542.479372388323   25153.936708956142  -31800.487788410759    1104.071707066297 
  101000   -5483.997406864848   -5483.997406864848   25216.157573390341  -31799.990824493038    1099.835844237846 
  102000   -5518.385260249092   -5518.385260249092   25241.061047296622  -31797.913162340945    1038.466854795227 
  103000   -5547.199399027479   -5547.199399027479   25116.467809563292  -31801.141283890887    1137.474075300113 
  104000   -5628.820392584999   -5628.820392584999   25061.749619510963  -31803.383458092285    1112.813445996321 
  105000   -5533.684070432460   -5533.684070432460   25189.853536590676  -31802.999999296779    1079.462392273646 
  106000   -5538.068457946771   -5538.068457946771   25195.472766813862  -31799.936968954287    1066.395744193651 
  107000   -5566.629324725105   -5566.629324725105   25154.932373846372  -31796.503207300429    1074.941508728951 
  108000   -5519.559772020952   -5519.559772020952   25199.395111020596  -31797.942825509988    1078.987942468437 
  109000   -5471.048337568936   -5471.048337568936   25269.244970328327  -31798.816256737904    1058.522948840639 
  110000   -5549.473721656646   -5549.473721656646   25166.718057822167  -31800.533467551042    1084.341688072229 
  111000   -5480.460577714868   -5480.460577714868   25292.711531256078  -31798.230827332765    1025.058718361814 
  112000   -5508.175084228274   -5508.175084228274   25171.926842219535  -31801.414197620328    1121.312271172523 
  113000   -5585.537850925004   -5585.537850925004   25093.514849629930  -31799.968577974952    1120.915877420020 
  114000   -5536.686611417757   -5536.686611417757   25122.410968881588  -31798.024647724782    1138.927067425429 
  115000   -5464.577738522577   -5464.577738522577   25231.909581738302  -31800.689463209441    1104.202142948559 
  116000   -5512.481778536152   -5512.481778536152   25189.087071330545  -31797.046854732933    1095.478004866236 
  117000   -5525.692663815396   -5525.692663815396   25160.336553331275  -31796.890074608931    1110.860857462257 
  118000   -5517.879885523344   -5517.879885523344   25216.698759039798  -31796.271218162939    1061.692573599799 
  119000   -5518.649748478507   -5518.649748478507   25188.032953972590  -31801.483838491473    1094.801136040377 
  120000   -5504.266302309570   -5504.266302309570   25195.484327488575  -31801.714530473357    1101.963900675215 
  121000   -5519.151991377315   -5519.151991377315   25170.995819349886  -31800.290193049241    1110.142382322041 
  122000   -5469.409707808136   -5469.409707808136   25237.674998508803  -31798.286305279289    1091.201598962351 
  123000   -5595.356333778582   -5595.356333778582   25086.084382842870  -31802.972613749822    1121.531897128370 
  124000   -5537.392620222472   -5537.392620222472   25168.391099014203  -31802.782006799996    1096.998287563319 
  125000   -5496.660560525677   -5496.660560525677   25197.664667805428  -31800.790249234153    1106.465020903046 
  126000   -5507.214703100126   -5507.214703100126   25236.821700445664  -31796.416025399922    1052.379621854128 
  127000   -5466.964279498228   -5466.964279498228   25288.220125925520  -31797.213223571551    1042.028818147804 
  128000   -5501.145055574958   -5501.145055574958   25196.198034904974  -31800.403606648379    1103.060516168447 
  129000   -5557.482963045950   -5557.482963045950   25155.856626629276  -31797.119515006016    1083.779925330789 
  130000   -5543.787654447948   -5543.787654447948   25156.987121700164  -31801.190894804018    1100.416118655903 
  131000   -5495.638654569149   -5495.638654569149   25243.372836341310  -31799.678593101082    1060.667102190619 
  132000   -5548.116666220885   -5548.116666220885   25152.570684022168  -31799.007310031458    1098.319959788406 
  133000   -5501.179141021788   -5501.179141021788   25176.223074172460  -31801.895427878571    1124.493212684329 
  134000   -5522.922808147330   -5522.922808147330   25231.392083192452  -31799.994362143010    1045.679470803229 
  135000   -5514.526251747506   -5514.526251747506   25231.012206403022  -31802.519710257766    1056.981252107238 
  136000   -5516.591832677739   -5516.591832677739   25175.554003096207  -31800.011089489490    1107.865253715540 
  137000   -5523.048030809132   -5523.048030809132   25127.084803139347  -31797.776784321872    1147.643950373398 
  138000   -5535.571265488743   -5535.571265488743   25175.160859502954  -31796.950129941833    1086.218004950137 
  139000   -5519.380082547406   -5519.380082547406   25195.045629877055  -31799.729624095071    1085.303911670609 
  140000   -5535.884277957171   -5535.884277957171   25106.362075087472  -31800.209171664657    1157.962818620014 
  141000   -5522.230114601836   -5522.230114601836   25163.782175962151  -31794.398976423636    1108.386685859652 
  142000   -5550.485187630620   -5550.485187630620   25167.532374417489  -31803.847863183088    1085.830301134981 
  143000   -5567.087802222890   -5567.087802222890   25135.592369954851  -31796.902412086831    1094.222239909092 
  144000   -5476.745776662177   -5476.745776662177   25237.950977026718  -31794.878048040384    1080.181294351482 
  145000   -5556.378701227790   -5556.378701227790   25139.168540359678  -31798.667350460630    1103.120108873161 
  146000   -5539.125370477639   -5539.125370477639   25136.122584643977  -31797.831458844186    1122.583503722571 
  147000   -5529.683988588436   -5529.683988588436   25140.709427679121  -31798.869509881963    1128.476093614403 
  148000   -5526.545797572682   -5526.545797572682   25124.965087406999  -31798.554472845102    1147.043587865425 
  149000   -5520.215044875091   -5520.215044875091   25252.548136973583  -31801.102835367183    1028.339653518505 
  150000   -5489.113970307175   -5489.113970307175   25226.185257098317  -31798.367439986665    1083.068212581177 
  151000   -5524.749346629433   -5524.749346629433   25173.759380034131  -31800.528645803373    1102.019919139813 
  152000   -5524.273956727666   -5524.273956727666   25122.312224378857  -31799.135916904968    1152.549735798450 
  153000   -5571.696687950451   -5571.696687950451   25165.583984351986  -31802.527059677082    1065.246387374646 
  154000   -5498.331767116350   -5498.331767116350   25241.768735480855  -31797.473837929971    1057.373335332766 
  155000   -5508.386573773842   -5508.386573773842   25274.762495778763  -31799.684450978093    1016.535381425485 
  156000   -5553.445120166994   -5553.445120166994   25128.887997076301  -31798.215164824418    1115.882047581124 
  157000   -5514.402233403987   -5514.402233403987   25163.374891236501  -31797.787289667092    1120.010165026605 
  158000   -5515.058631703279   -5515.058631703279   25252.925994493875  -31802.456736211403    1034.472110014250 
  159000   -5550.555110754449   -5550.555110754449   25194.580844173801  -31798.139912499446    1053.003957571193 
  160000   -5551.685859201767   -5551.685859201767   25128.761850851828  -31797.472417569992    1117.024707516396 
  161000   -5507.846878645036   -5507.846878645036   25264.953377140562  -31799.953628774747    1027.153372989148 
  162000   -5526.074238591282   -5526.074238591282   25204.123408051761  -31798.488139973408    1068.290493330361 
  163000   -5562.822953215527   -5562.822953215527   25207.814018154804  -31801.354808485365    1030.717837115035 
  164000   -5516.156777339056   -5516.156777339056   25222.064118265800  -31796.645644832592    1058.424749227736 
  165000   -5481.332554008193   -5481.332554008193   25188.998284226363  -31797.570006373084    1127.239168138527 
  166000   -5521.066221945512   -5521.066221945512   25206.477815817518  -31797.548432066622    1070.004394303593 
  167000   -5553.579782426579   -5553.579782426579   25122.659223885159  -31802.386698723323    1126.147692411581 
  168000   -5548.495347761567   -5548.495347761567   25167.573026258415  -31795.457537231141    1079.389163211156 
  169000   -5538.047399507046   -5538.047399507046   25146.754195086014  -31798.922720676983    1114.121126083926 
  170000   -5544.376141530713   -5544.376141530713   25152.825252585597  -31799.821262665941    1102.619868549629 
  171000   -5464.156711175627   -5464.156711175627   25246.050073547161  -31797.866716240573    1087.659931517784 
  172000   -5492.693957002226   -5492.693957002226   25176.410070004356  -31797.414971884125    1128.310944877549 
  173000   -5506.579777678020   -5506.579777678020   25176.725114533288  -31793.120289185539    1109.815396974233 
  174000   -5514.262769745284   -5514.262769745284   25175.303345986580  -31797.814574491400    1108.248458759532 
  175000   -5501.531858120848   -5501.531858120848   25227.903982801286  -31802.675241337041    1073.239400414908 
  176000   -5547.268016624530   -5547.268016624530   25097.990829588565  -31800.173155504646    1154.914309291552 
  177000   -5442.234421834753   -5442.234421834753   25327.864959051134  -31798.220666644691    1028.121285758797 
  178000   -5515.516336600565   -5515.516336600565   25163.123515916755  -31800.468229196398    1121.828376679081 
  179000   -5457.112882252637   -5457.112882252637   25242.706678889841  -31800.155109048119    1100.335547905639 
  180000   -5488.855559164647   -5488.855559164647   25255.521851274643  -31801.373959861769    1056.996549422481 
  181000   -5519.763174257943   -5519.763174257943   25216.376788605863  -31797.652888974495    1061.512926110686 
  182000   -5550.678691366549   -5550.678691366549   25148.920405949779  -31799.826650025971    1100.227552709640 
  183000   -5472.905100058564   -5472.905100058564   25245.966052980082  -31798.577002131955    1079.705849093312 
  184000   -5538.770654116932   -5538.770654116932   25096.437578461188  -31801.214347774530    1166.006115196411 
  185000   -5528.957795691829   -5528.957795691829   25147.233677465636  -31802.476766544933    1126.285293387473 
  186000   -5497.602201983223   -5497.602201983223   25162.320986127401  -31799.608830673031    1139.685642562410 
  187000   -5545.960863376255   -5545.960863376255   25200.589261018707  -31802.287912507520    1055.737788112561 
  188000   -5491.165687432152   -5491.165687432152   25195.405125798294  -31802.409414293204    1115.838601062764 
  189000   -5566.765251130575   -5566.765251130575   25088.470095146142  -31800.962957110922    1145.727610834201 
  190000   -5544.017702314377   -5544.017702314377   25180.381783467790  -31799.665599581022    1075.266113798854 
  191000   -5606.557881364050   -5606.557881364050   25119.822235516105  -31798.855242174875    1072.475125294722 
  192000   -5507.489745821251   -5507.489745821251   25136.127364270578  -31803.132799369228    1159.515689277402 
  193000   -5501.002575935752   -5501.002575935752   25176.457297632518  -31799.206712615087    1121.746839046817 
  194000   -5509.629928672479   -5509.629928672479   25150.821461533411  -31796.153797066956    1135.702406861068 
  195000   -5508.130137744458   -5508.130137744458   25205.197004025609  -31802.627555523159    1089.300413753087 
  196000   -5524.462447338374   -5524.462447338374   25176.435952566459  -31795.059428844837    1094.161028940005 
  197000   -5566.564559841394   -5566.564559841394   25124.958117348004  -31799.978585662800    1108.455908473403 
  198000   -5528.201172188681   -5528.201172188681   25151.665610926815  -31800.736805508997    1120.870022393505 
  199000   -5546.914401151476   -5546.914401151476   25140.880166827868  -31798.008362193763    1110.213794214415 
  200000   -5534.269742692915   -5534.269742692915   25198.683459963431  -31800.350577389909    1067.397374733561 
  201000   -5538.290203155648   -5538.290203155648   25171.854508205539  -31802.301213976465    1092.156502615278 
  202000   -5458.071329549613   -5458.071329549613   25248.152591594422  -31796.379352779088    1090.155431635051 
  203000   -5559.473022377417   -5559.473022377417   25196.937412242307  -31800.668544522443    1044.258109902718 
  204000   -5501.879972313112   -5501.879972313112   25329.597919868294  -31800.111558329576     968.633666148170 
  205000   -5504.279012094186   -5504.279012094186   25237.978287096554  -31799.935887093849    1057.678587903108 
  206000   -5525.988105058772   -5525.988105058772   25203.316899619109  -31802.446601555072    1073.141596877189 
  207000   -5498.859818049248   -5498.859818049248   25268.036463952572  -31799.077272055332    1032.180990053510 
  208000   -5548.855725004127   -5548.855725004127   25176.836015378867  -31798.479565916794    1072.787825533798 
  209000   -5563.273397803699   -5563.273397803699   25196.884373379205  -31798.868432653377    1038.710661470472 
  210000   -5553.469343635770   -5553.469343635770   25151.188599687033  -31802.598547246052    1097.940603923250 
  211000   -5517.747772539995   -5517.747772539995   25220.680949030568  -31803.487389567250    1065.058667996686 
  212000   -5495.524560298294   -5495.524560298294   25211.309178836833  -31798.093331084641    1091.259591949518 
  213000   -5504.498019662653   -5504.498019662653   25208.772738091095  -31799.191818902767    1085.921061149015 
  214000   -5565.981897154128   -5565.981897154128   25058.619983146524  -31801.177597160768    1176.575716860117 
  215000   -5533.349089974679   -5533.349089974679   25143.665058452672  -31800.752165571521    1123.738017144165 
  216000   -5489.709817299379   -5489.709817299379   25255.199708646891  -31797.437744786992    1052.528218840717 
  217000   -5532.770721454130   -5532.770721454130   25205.628927155150  -31796.940186869848    1058.540538260568 
  218000   -5600.406614765070   -5600.406614765070   25077.094678414636  -31797.992497891595    1120.491204711890 
  219000   -5540.423203033923   -5540.423203033923   25153.152603967847  -31799.108859997465    1105.533052995692 
  220000   -5592.484936618537   -5592.484936618537   25083.373232778202  -31799.331892759124    1123.473723362385 
  221000   -5503.343152770009   -5503.343152770009   25267.491783606863  -31797.717538559675    1026.882602182802 
  222000   -5539.797479881672   -5539.797479881672   25138.025066474813  -31802.141894514509    1124.319348158021 
  223000   -5558.738900445540   -5558.738900445540   25120.437789525498  -31798.418248423310    1119.241558452276 
  224000   -5588.626368825579   -5588.626368825579   25091.696858173636  -31798.300616260171    1117.977389260958 
  225000   -5514.728447391448   -5514.728447391448   25198.651742959912  -31795.924369633936    1082.544179282576 
  226000   -5566.273953317555   -5566.273953317555   25113.251200429248  -31799.540168351818    1120.015014605011 
  227000   -5521.272605323167   -5521.272605323167   25213.759105672478  -31802.023747233281    1066.992036237637 
  228000   -5524.671355045855   -5524.671355045855   25190.274792333301  -31798.996639560864    1084.050492181709 
  229000   -5503.651523219989   -5503.651523219989   25254.674140035262  -31797.071388026790    1038.745724771540 
  230000   -5522.795340050267   -5522.795340050267   25171.764544701775  -31799.812104715955    1105.252219963911 
  231000   -5498.044637651539   -5498.044637651539   25290.131272383678  -31800.393265681647    1012.217355646430 
  232000   -5530.682480324886   -5530.682480324886   25133.723971887659  -31799.004629370134    1134.598177157588 
  233000   -5541.893295149726   -5541.893295149726   25117.630914043446  -31798.424382597579    1138.900173404401 
  234000   -5490.852861859330   -5490.852861859330   25269.110386625835  -31797.767795156753    1037.804546671585 
  235000   -5537.546161357805   -5537.546161357805   25189.221208192532  -31800.866768786906    1074.099399236572 
  236000   -5493.555452377233   -5493.555452377233   25299.895477626509  -31794.451916743823    1001.000986740079 
  237000   -5529.049721027313   -5529.049721027313   25185.410842472651  -31799.473961370761    1085.013397870795 
  238000   -5574.271752660610   -5574.271752660610   25129.841299051233  -31799.618811204768    1095.505759492925 
  239000   -5523.230422658849   -5523.230422658849   25245.790341045482  -31799.257324299222    1030.236560594891 
  240000   -5560.746453946842   -5560.746453946842   25160.648534451520  -31799.350078333686    1077.955089935325 
  241000   -5551.105236606774   -5551.105236606774   25170.880835927172  -31800.620236542298    1078.634164008353 
  242000   -5515.865676237798   -5515.865676237798   25162.145643709100  -31798.507793185101    1120.496473238205 
  243000   -5496.935677509678   -5496.935677509678   25239.904955949016  -31795.572815921161    1058.732182462468 
  244000   -5515.564304471507   -5515.564304471507   25180.648060261443  -31798.210005831224    1101.997641098274 
  245000   -5570.838086673401   -5570.838086673401   25117.429378029778  -31796.404425739496    1108.136961036322 
  246000   -5519.238201180142   -5519.238201180142   25225.465662941868  -31798.380924055524    1053.677059933513 
  247000   -5528.727752682800   -5528.727752682800   25203.294489626580  -31800.029076433944    1068.006834124565 
  248000   -5529.762837235223   -5529.762837235223   25223.759964009041  -31799.515145679088    1045.992344434821 
  249000   -5579.696456506095   -5579.696456506095   25105.548017079782  -31799.924029340753    1114.679555754880 
  250000   -5533.307188247640   -5533.307188247640   25190.021889983691  -31800.174289103317    1076.845210871981 
  251000   -5517.017802144688   -5517.017802144688   25220.624673847746  -31802.148559280864    1064.506083288428 
  252000   -5553.527232675813   -5553.527232675813   25161.395538114943  -31798.992207935604    1084.069437144853 
  253000   -5543.700739861968   -5543.700739861968   25195.553763790795  -31803.731461456398    1064.476957803635 
  254000   -5522.530112783072   -5522.530112783072   25131.957208731812  -31801.420975773264    1146.933654258381 
  255000   -5550.069558272575   -5550.069558272575   25122.455319164630  -31803.743096091261    1131.218218654055 
  256000   -5493.505338889994   -5493.505338889994   25208.668120494309  -31797.003433203012    1094.829973818709 
  257000   -5484.463320325529   -5484.463320325529   25213.987696457840  -31799.766183087224    1101.315166303852 
  258000   -5516.826087594269   -5516.826087594269   25111.500851257639  -31797.490440155834    1169.163501303924 
  259000   -5443.670105656645   -5443.670105656645   25350.008189982902  -31795.277754905288    1001.599459265741 
  260000   -5525.008663573219   -5525.008663573219   25139.661865749651  -31796.105368907487    1131.434839584616 
  261000   -5533.196374181709   -5533.196374181709   25140.292786135353  -31799.427959334142    1125.938799017081 
  262000   -5553.044719957910   -5553.044719957910   25077.182434058152  -31800.444680824767    1170.217526808701 
  263000   -5522.978070155630   -5522.978070155630   25222.279033023948  -31804.003664754498    1058.746561574924 
  264000   -5563.620209404911   -5563.620209404911   25163.640016210375  -31800.768982863745    1073.508757248459 
  265000   -5540.290860843641   -5540.290860843641   25144.792913448298  -31801.742295819095    1116.658521527154 
  266000   -5437.800572000593   -5437.800572000593   25299.480279135943  -31799.143646590182    1061.862795453643 
  267000   -5482.434760775453   -5482.434760775453   25246.836310752697  -31798.349162643201    1069.078091115053 
  268000   -5536.066707019010   -5536.066707019010   25131.479683417732  -31798.784295009984    1131.237904573246 
  269000   -5486.897693196166   -5486.897693196166   25254.988314995480  -31801.048721780444    1059.162713588801 
  270000   -5547.204280548489   -5547.204280548489   25142.287334297689  -31804.376332216696    1114.884717370516 
  271000   -5555.859397668395   -5555.859397668395   25134.547322633931  -31798.569717571383    1108.162997269052 
  272000   -5444.657787999615   -5444.657787999615   25300.109081186147  -31799.078766785362    1054.311897599600 
  273000   -5512.077079310919   -5512.077079310919   25241.856865031648  -31801.631890735403    1047.697946392835 
  274000   -5519.650951353662   -5519.650951353662   25185.214335256944  -31800.745817220715    1095.880530610111 
  275000   -5560.741946752310   -5560.741946752310   25181.264141979300  -31804.384950161981    1062.378861430371 
  276000   -5504.770275674611   -5504.770275674611   25189.810719457229  -31796.462290133048    1101.881295001207 
  277000   -5475.185701063376   -5475.185701063376   25236.458883806954  -31794.939688376558    1083.295103506227 
  278000   -5564.440240929664   -5564.440240929664   25152.336776755878  -31799.887777775592    1083.110760090050 
  279000   -5510.596396604502   -5510.596396604502   25260.219837841178  -31801.930724179336    1031.114489733654 
  280000   -5535.485571313220   -5535.485571313220   25084.513314465563  -31801.365650019976    1181.366764241197 
  281000   -5526.404474657640   -5526.404474657640   25144.237935364486  -31798.433901124263    1127.791491102140 
  282000   -5455.210457156074   -5455.210457156074   25191.273757162915  -31796.506440925328    1150.022226606341 
  283000   -5572.315212489670   -5572.315212489670   25191.854260983459  -31798.197275601593    1034.027802128466 
  284000   -5509.160530903679   -5509.160530903679   25192.372155314322  -31796.403672275777    1094.870986057778 
  285000   -5513.735564970677   -5513.735564970677   25214.803727078157  -31800.697895587360    1072.158603538526 
  286000   -5549.453163334361   -5549.453163334361   25190.304672951184  -31798.575389460631    1058.817553175085 
  287000   -5481.306278073767   -5481.306278073767   25219.489953560369  -31793.076016469720    1092.279784835584 
  288000   -5539.088917922320   -5539.088917922320   25192.423736201603  -31802.951866490017    1071.439212366092 
  289000   -5518.879306179439   -5518.879306179439   25177.322306701815  -31801.951466236220    1105.749853354966 
  290000   -5570.293873728540   -5570.293873728540   25063.506230779651  -31800.216160777887    1166.416056269696 
  291000   -5613.228299498191   -5613.228299498191   25036.393721454704  -31797.519238781842    1147.897217828949 
  292000   -5588.063362666988   -5588.063362666988   25108.892552532659  -31798.437693899294    1101.481778699646 
  293000   -5522.130768155879   -5522.130768155879   25179.141064587711  -31800.580224632704    1099.308391889112 
  294000   -5581.627526046395   -5581.627526046395   25113.172537984356  -31804.673003682165    1109.872939651420 
  295000   -5517.713182266776   -5517.713182266776   25250.519445956688  -31799.790915460857    1031.558287237395 
  296000   -5544.435231958028   -5544.435231958028   25145.000132986908  -31801.742737629698    1112.307372684762 
  297000   -5513.062369081639   -5513.062369081639   25193.138916314238  -31799.235859015575    1093.034573619694 
  298000   -5549.300164119672   -5549.300164119672   25192.525333026235  -31801.794501352120    1059.969004206221 
  299000   -5477.789476940921   -5477.789476940921   25244.857342362920  -31796.013817638392    1073.366998334548 
  300000   -5526.397027711981   -5526.397027711981   25199.971796400219  -31799.817526003782    1073.448701891583 
  301000   -5519.035062719580   -5519.035062719580   25222.150241650226  -31798.287998534051    1057.102694164248 
  302000   -5579.802906603371   -5579.802906603371   25082.729711828630  -31800.381016812375    1137.848398380374 
  303000   -5517.523969218400   -5517.523969218400   25190.742142699564  -31796.601092535002    1088.334980617037 
  304000   -5473.855116321345   -5473.855116321345   25271.458027941910  -31800.996608278805    1055.683464015549 
  305000   -5520.715502908370   -5520.715502908370   25263.016809202007  -31797.399450773606    1013.667138663230 
  306000   -5585.629719902954   -5585.629719902954   25028.354976455048  -31802.232393596689    1188.247697238685 
  307000   -5593.048499843768   -5593.048499843768   25054.081861676503  -31803.174029488255    1156.043667967982 
  308000   -5541.874663461927   -5541.874663461927   25104.109922490930  -31797.957302767198    1151.972716814339 
  309000   -5500.228771506627   -5500.228771506627   25227.572210452199  -31800.756830822331    1072.955848863505 
  310000   -5540.256464997885   -5540.256464997885   25133.425741140149  -31801.148954259555    1127.466748121521 
  311000   -5572.364004309049   -5572.364004309049   25106.051169728584  -31797.930282927220    1119.515108889587 
  312000   -5580.541915816586   -5580.541915816586   25172.295939591764  -31801.780449435886    1048.942594027533 
  313000   -5475.353784578023   -5475.353784578023   25208.487429173776  -31797.849460209258    1114.008246457454 
  314000   -5562.344182297049   -5562.344182297049   25182.197523087394  -31799.615793912344    1055.074088527900 
  315000   -5617.528593229606   -5617.528593229606   25080.287433882128  -31799.894958934445    1102.078931822713 
  316000   -5586.619446647590   -5586.619446647590   25088.016435421239  -31802.545413583626    1127.909531514802 
  317000   -5506.487451774115   -5506.487451774115   25244.795521919419  -31800.568736419689    1049.285762726150 
  318000   -5491.539402017042   -5491.539402017042   25263.486842232956  -31797.688163032672    1042.661918782677 
  319000   -5522.759451760248   -5522.759451760248   25177.287018942025  -31798.524150500118    1098.477679797842 
  320000   -5509.732777470712   -5509.732777470712   25217.915013313021  -31802.823229585727    1075.175438801992 
  321000   -5508.286141467786   -5508.286141467786   25222.668074986213  -31802.618748876728    1071.664532422732 
  322000   -5565.901338215237   -5565.901338215237   25210.590238555931  -31796.735121810114    1020.243545038945 
  323000   -5545.426586611116   -5545.426586611116   25117.311284872565  -31796.407579718772    1133.669708235093 
  324000   -5531.386273874832   -5531.386273874832   25196.985380430164  -31800.598616962721    1072.226962657729 
  325000   -5584.504397183184   -5584.504397183184   25139.818087329480  -31802.707805018992    1078.385320506325 
  326000   -5547.058908898925   -5547.058908898925   25164.194537230258  -31798.055554753242    1086.802108624058 
  327000   -5565.497292170963   -5565.497292170963   25062.316983148918  -31801.337565555761    1173.523290235879 
  328000   -5479.748649537025   -5479.748649537025   25249.497802340687  -31799.434961405059    1070.188509527341 
  329000   -5539.462096090720   -5539.462096090720   25163.908224651394  -31797.378806709043    1094.008485966927 
  330000   -5617.330240472376   -5617.330240472376   25016.407403373691  -31799.701901570719    1165.964257724656 
  331000   -5517.670518949468   -5517.670518949468   25183.350640055996  -31798.376879719675    1097.355720714211 
  332000   -5557.385604295359   -5557.385604295359   25116.474922712223  -31802.155102908680    1128.294575901096 
  333000   -5463.740933455414   -5463.740933455414   25280.128394296291  -31797.270789882354    1053.401462130652 
  334000   -5567.688106085236   -5567.688106085236   25167.798546178485  -31799.449187365994    1063.962535102273 
  335000   -5507.792987024099   -5507.792987024099   25185.556158383024  -31800.231667561322    1106.882522154199 
  336000   -5545.811270152208   -5545.811270152208   25152.911513203384  -31797.909517609198    1099.186734253611 
  337000   -5534.174375616425   -5534.174375616425   25221.501986145748  -31797.862934365832    1042.186572603655 
  338000   -5512.022829308731   -5512.022829308731   25125.806523213989  -31795.403602169838    1157.574249647113 
  339000   -5497.005979525919   -5497.005979525919   25231.570561413748  -31796.492454522860    1067.915913583199 
  340000   -5544.410882267992   -5544.410882267992   25138.242809046282  -31800.796766512813    1118.143075198536 
  341000   -5554.278016886572   -5554.278016886572   25176.666226220488  -31796.331321605336    1065.387078498273 
  342000   -5477.968435617258   -5477.968435617258   25194.652079136664  -31798.248551871049    1125.628037117124 
  343000   -5565.391452033593   -5565.391452033593   25106.425487698492  -31802.533597416164    1130.716657684084 
  344000   -5526.656986182363   -5526.656986182363   25140.345112737668  -31797.998919135829    1130.996820215800 
  345000   -5505.348243219785   -5505.348243219785   25192.010686196314  -31798.901631045112    1101.542701629008 
  346000   -5545.322694371003   -5545.322694371003   25213.411917040597  -31796.351451190625    1037.616839779023 
  347000   -5509.125897753966   -5509.125897753966   25186.678403887487  -31798.141092631868    1102.336790990412 
  348000   -5555.818507742038   -5555.818507742038   25114.334979659328  -31801.567947087773    1131.414459686408 
  349000   -5549.319329501202   -5549.319329501202   25160.194705807924  -31798.572646607725    1089.058611298592 
  350000   -5525.112707386204   -5525.112707386204   25190.398492675944  -31797.556814322765    1082.045614260615 
  351000   -5512.655402634860   -5512.655402634860   25233.530858386392  -31798.624615879831    1052.438354858586 
  352000   -5496.306885353952   -5496.306885353952   25232.049543437541  -31798.433465448932    1070.077036657443 
  353000   -5521.184029988723   -5521.184029988723   25170.865437795434  -31797.200121245260    1105.150653461102 
  354000   -5503.837694121459   -5503.837694121459   25222.416553570016  -31799.177597663002    1072.923349971521 
  355000   -5462.526683469914   -5462.526683469914   25269.897361590378  -31799.512040565016    1067.087995504724 
  356000   -5538.310362667453   -5538.310362667453   25175.137067506381  -31802.203887381744    1088.756457207912 
  357000   -5540.712248292613   -5540.712248292613   25140.476053671540  -31801.207282633994    1120.018980669840 
  358000   -5501.443278967341   -5501.443278967341   25256.895752825520  -31797.193012039228    1038.853980246365 
  359000   -5522.106836743129   -5522.106836743129   25130.529219707259  -31798.515929225789    1145.879872775397 
  360000   -5521.730094398277   -5521.730094398277   25168.411530039830  -31801.046942729408    1110.905318291304 
  361000   -5556.445354069492   -5556.445354069492   25147.358284629023  -31794.874822938309    1091.071184239788 
  362000   -5523.837943848921   -5523.837943848921   25218.170667132916  -31800.167167887856    1058.158556906020 
  363000   -5568.075096436329   -5568.075096436329   25069.022298951146  -31799.010946135586    1161.913550748110 
  364000   -5630.301552898876   -5630.301552898876   25042.079891431360  -31804.183684236232    1131.802239905992 
  365000   -5560.806534359694   -5560.806534359694   25145.936204391306  -31801.123836507893    1094.381097756893 
  366000   -5471.088461718158   -5471.088461718158   25310.705861922703  -31794.768592340173    1012.974268699317 
  367000   -5475.364787423176   -5475.364787423176   25258.077913864778  -31797.962064293792    1064.519363005834 
  368000   -5549.841933788492   -5549.841933788492   25146.834515069466  -31801.686427644141    1105.009978786182 
  369000   -5470.993010653368   -5470.993010653368   25252.083713032425  -31801.216140786903    1078.139417101109 
  370000   -5499.645862761663   -5499.645862761663   25259.725940639772  -31794.583708364418    1035.211904962981 
  371000   -5522.489317862688   -5522.489317862688   25254.067671828769  -31800.934808253005    1024.377818561551 
  372000   -5480.003811378683   -5480.003811378683   25295.269870505628  -31796.840867756142    1021.567185871833 
  373000   -5580.558470407916   -5580.558470407916   25095.295935475930  -31800.827333289308    1124.972927405468 
  374000   -5516.108008553478   -5516.108008553478   25178.843298860447  -31795.018239635123    1100.066932221197 
  375000   -5531.260983246200   -5531.260983246200   25152.019571716643  -31802.334997888403    1119.054442925560 
  376000   -5541.416539917209   -5541.416539917209   25147.497487457553  -31804.822942672028    1115.908915297264 
  377000   -5515.775141601509   -5515.775141601509   25169.309683118398  -31802.919049180491    1117.834224460584 
  378000   -5557.210691758035   -5557.210691758035   25132.802509419747  -31798.610576802192    1108.597375624407 
  379000   -5464.090305766811   -5464.090305766811   25267.435264655658  -31791.629357748003    1060.103787325535 
  380000   -5542.560094404405   -5542.560094404405   25154.984322433738  -31797.174760144189    1099.630343306042 
  381000   -5557.940561733445   -5557.940561733445   25127.364653327928  -31799.613344558289    1114.308129496916 
  382000   -5498.401141864109   -5498.401141864109   25242.481388255379  -31799.484665247175    1058.602135127685 
  383000   -5506.505775424837   -5506.505775424837   25215.516993824385  -31800.514273759833    1078.491504510615 
  384000   -5546.311228391325   -5546.311228391325   25190.611169671800  -31801.228558995830    1064.306160932706 
  385000   -5440.370852877375   -5440.370852877375   25325.290321806973  -31796.807157587671    1031.145982903324 
  386000   -5572.771122230686   -5572.771122230686   25135.355587143713  -31803.775696833214    1095.648987458821 
  387000   -5476.147915689136   -5476.147915689136   25208.737448423744  -31802.106968383101    1117.221604270219 
  388000   -5491.902582014016   -5491.902582014016   25224.773061500986  -31800.477107845814    1083.801464330814 
  389000   -5518.154218594711   -5518.154218594711   25178.990368577586  -31799.477130831714    1102.332543659417 
  390000   -5516.369804550643   -5516.369804550643   25184.840523773895  -31800.604591966901    1099.394263642359 
  391000   -5505.098147598164   -5505.098147598164   25231.818057900578  -31798.208701763764    1061.292496265022 
  392000   -5492.191430203289   -5492.191430203289   25218.179889459785  -31799.481455747329    1089.110136084256 
  393000   -5574.870160968567   -5574.870160968567   25146.299983986872  -31798.941466564946    1077.771321609509 
  394000   -5559.786889613148   -5559.786889613148   25141.642651072354  -31803.441591293566    1102.012050608064 
  395000   -5509.338849425989   -5509.338849425989   25182.876707997471  -31796.360215544122    1104.144658120663 
  396000   -5577.082315898049   -5577.082315898049   25111.995633950501  -31804.414650030129    1115.336700181578 
  397000   -5440.545641879973   -5440.545641879973   25334.816899406902  -31797.947340380899    1022.584799094020 
  398000   -5470.538497358459   -5470.538497358459   25322.944098551823  -31798.341096693242    1004.858500782957 
  399000   -5477.638694226640   -5477.638694226640   25311.298539232368  -31801.271960107835    1012.334726648825 
  400000   -5452.269495574128   -5452.269495574128   25345.842553919749  -31794.444749682651     996.332700188774 
  401000   -5498.827809465714   -5498.827809465714   25221.661846435614  -31797.564202430236    1077.074546528911 
  402000   -5580.758039036165   -5580.758039036165   25186.190846463909  -31802.588445146819    1035.639559646745 
  403000   -5581.158968204214   -5581.158968204214   25075.189293078183  -31798.199994676870    1141.851733394475 
  404000   -5558.821837912652   -5558.821837912652   25133.819673637994  -31797.839634160558    1105.198122609913 
  405000   -5473.793695281660   -5473.793695281660   25286.027400793915  -31803.028522041575    1043.207425965997 
  406000   -5522.550406736147   -5522.550406736147   25170.622865520992  -31799.606022416607    1106.432750159466 
  407000   -5536.152241766053   -5536.152241766053   25133.544769693610  -31800.622632781939    1130.925621322277 
  408000   -5501.870341655092   -5501.870341655092   25128.390244458380  -31802.080739153949    1171.820153040476 
  409000   -5509.746519647029   -5509.746519647029   25150.557483683559  -31797.743634696657    1137.439631366070 
  410000   -5459.627531288086   -5459.627531288086   25237.863958018766  -31794.805412541486    1097.313923234633 
  411000   -5459.386101483084   -5459.386101483084   25230.313435273521  -31794.727700684511    1105.028163927908 
  412000   -5486.144224390144   -5486.144224390144   25284.487173625719  -31801.710828721432    1031.079430705567 
  413000   -5537.906289336202   -5537.906289336202   25100.253308080595  -31798.708018094232    1160.548420677435 
  414000   -5458.561610545839   -5458.561610545839   25150.072640322229  -31801.643410387485    1193.009159519423 
  415000   -5523.404795172097   -5523.404795172097   25109.181441471002  -31794.386881838571    1161.800645195467 
  416000   -5493.174382430505   -5493.174382430505   25205.097042832476  -31799.333149973503    1101.061724710519 
  417000   -5492.064074949336   -5492.064074949336   25236.748942973634  -31799.515240814639    1070.702222891667 
  418000   -5530.339246981723   -5530.339246981723   25190.266909594124  -31802.784157066373    1082.178000490531 
  419000   -5531.208417659869   -5531.208417659869   25170.083599364407  -31800.769019710679    1099.477002686398 
  420000   -5535.215250043668   -5535.215250043668   25245.192882435931  -31798.267884999288    1017.859752519688 
  421000   -5517.467503666394   -5517.467503666394   25145.837013388886  -31796.785345674867    1133.480828619586 
  422000   -5511.331316951557   -5511.331316951557   25243.078137233202  -31796.378177724477    1041.968723539722 
  423000   -5522.669906896987   -5522.669906896987   25215.785161560994  -31800.616981218500    1062.161912760522 
  424000   -5491.322914309789   -5491.322914309789   25224.806349980554  -31802.067641787355    1085.938377497009 
  425000   -5442.557475406917   -5442.557475406917   25299.274266023465  -31800.520775183271    1058.689033752893 
  426000   -5450.043716849279   -5450.043716849279   25257.645635808432  -31797.274309542496    1089.584956884785 
  427000   -5473.997572262684   -5473.997572262684   25265.576935173605  -31798.660796863180    1059.086289426892 
  428000   -5504.660166896956   -5504.660166896956   25231.455862053615  -31793.404160598886    1057.288131648319 
  429000   -5537.311836689521   -5537.311836689521   25131.217500234245  -31799.790901220258    1131.261564296492 
  430000   -5512.878678170273   -5512.878678170273   25188.721368313018  -31797.781320028826    1096.181273545535 
  431000   -5522.270886031198   -5522.270886031198   25162.326519817037  -31802.442822657453    1117.845416809217 
  432000   -5546.399068514776   -5546.399068514776   25184.191076960004  -31800.305659127644    1069.715513652867 
  433000   -5502.033562731078   -5502.033562731078   25263.018547748150  -31797.296000208062    1032.243889728835 
  434000   -5528.257481895511   -5528.257481895511   25202.742241924949  -31800.087764245407    1069.088040424953 
  435000   -5547.921690815136   -5547.921690815136   25144.223885609092  -31801.201098373065    1109.055521948837 
  436000   -5578.633162425151   -5578.633162425151   25129.013980928554  -31796.435603069691    1088.788459715984 
  437000   -5513.457857519719   -5513.457857519719   25251.805182600539  -31802.961357118209    1037.698316997950 
  438000   -5560.910732627264   -5560.910732627264   25114.979940939302  -31800.776783776433    1124.886110209874 
  439000   -5453.085699656149   -5453.085699656149   25354.717172444329  -31797.802727771719     989.999855671242 
  440000   -5497.724924627633   -5497.724924627633   25203.727717955855  -31797.551642248778    1096.098999665291 
  441000   -5521.790722286631   -5521.790722286631   25177.444257383435  -31802.961894732452    1103.726915062389 
  442000   -5540.333668926105   -5540.333668926105   25198.061131323040  -31797.868718969017    1059.473918719871 
  443000   -5499.083271274812   -5499.083271274812   25223.894754921945  -31794.354420248790    1071.376394052031 
  444000   -5505.276035640996   -5505.276035640996   25271.565028441422  -31800.367610860751    1023.526546778329 
  445000   -5535.901283655527   -5535.901283655527   25225.422235594233  -31798.665351155047    1037.341831905287 
  446000   -5570.342675865119   -5570.342675865119   25206.414846412492  -31801.452436347910    1024.694914070301 
  447000   -5569.995278006299   -5569.995278006299   25052.395681761431  -31804.097877838936    1181.706918071209 
  448000   -5513.140092684320   -5513.140092684320   25158.448711254219  -31801.172779131062    1129.583975192523 
  449000   -5508.326773515706   -5508.326773515706   25190.466089336605  -31798.814821653599    1100.021958801289 
  450000   -5498.993697211587   -5498.993697211587   25247.514542833622  -31798.152354724538    1051.644114679330 
  451000   -5508.763389886397   -5508.763389886397   25229.349740384641  -31794.979238209195    1056.866107938159 
  452000   -5511.707850499730   -5511.707850499730   25228.122828444299  -31799.943169661350    1060.112490717323 
  453000   -5500.499773157433   -5500.499773157433   25176.427952321745  -31795.949853331520    1119.022127852341 
  454000   -5587.662344238121   -5587.662344238121   25101.765920111997  -31800.032537175288    1110.604272825167 
  455000   -5488.633587162483   -5488.633587162483   25292.278302361370  -31797.541591810761    1016.629702286910 
  456000   -5525.477973225446   -5525.477973225446   25218.596203042132  -31794.564799496646    1050.490623229068 
  457000   -5500.269155864848   -5500.269155864848   25164.782862067259  -31800.571924967244    1135.519907035135 
  458000   -5524.648896228678   -5524.648896228678   25146.206623802980  -31798.280135725126    1127.424615693469 
  459000   -5486.911033798839   -5486.911033798839   25268.774859329729  -31799.560905022270    1043.875011893705 
  460000   -5526.153024236544   -5526.153024236544   25244.033368371107  -31799.405563706201    1029.219171098551 
  461000   -5475.879968755133   -5475.879968755133   25232.845153580245  -31800.220946775255    1091.495824439877 
  462000   -5566.013519929522   -5566.013519929522   25109.872497567110  -31798.121377202264    1122.235359705633 
  463000   -5461.829598238553   -5461.829598238553   25279.707934233025  -31796.938842104140    1055.401309632558 
  464000   -5502.273116977307   -5502.273116977307   25182.853725146269  -31797.834345276598    1112.707503153017 
  465000   -5463.420289914364   -5463.420289914364   25313.912561307803  -31798.340390397228    1021.007539175061 
  466000   -5542.176923935825   -5542.176923935825   25253.376968274304  -31802.326251793809    1006.772359583679 
  467000   -5555.594122674585   -5555.594122674585   25142.472157010947  -31800.841098782359    1102.774819096827 
  468000   -5589.644327426995   -5589.644327426995   25102.877178387273  -31798.544865305288    1106.023359491020 
  469000   -5557.122777107255   -5557.122777107255   25204.163868436532  -31800.044751031437    1038.758105487650 
  470000   -5499.608788183865   -5499.608788183865   25182.090342472682  -31805.745357626845    1124.046226970294 
  471000   -5548.911805277359   -5548.911805277359   25076.305172472854  -31805.483685576251    1180.266707826036 
  472000   -5562.019520661685   -5562.019520661685   25116.414679559777  -31797.528373206329    1119.094172984866 
  473000   -5529.070361414721   -5529.070361414721   25150.029182899249  -31799.850002202231    1120.750457888262 
  474000   -5490.209602517407   -5490.209602517407   25186.763556800877  -31801.746515210489    1124.773355892207 
  475000   -5542.207587064091   -5542.207587064091   25202.552320950803  -31795.916558469169    1051.156650454276 
  476000   -5525.633589693796   -5525.633589693796   25142.572985859693  -31798.067759958973    1129.861184405482 
  477000   -5534.832352745252   -5534.832352745252   25115.452221228603  -31797.229108842366    1146.944534868510 
  478000   -5568.498034201060   -5568.498034201060   25115.853796414609  -31806.906924257721    1122.555093642054 
  479000   -5543.680935991630   -5543.680935991630   25175.142582915589  -31797.563665109803    1078.740146202586 
  480000   -5517.515486425658   -5517.515486425658   25178.277207256935  -31797.838259115390    1102.045565432796 
  481000   -5514.766953674687   -5514.766953674687   25228.606619596994  -31802.451790353090    1059.078217081410 
  482000   -5513.574304400627   -5513.574304400627   25261.396154646674  -31797.151004404863    1022.180545357561 
  483000   -5517.223688383892   -5517.223688383892   25247.874533288050  -31801.202209503652    1036.103987831708 
  484000   -5561.597121681232   -5561.597121681232   25095.442230963388  -31799.955502105080    1142.916149460460 
  485000   -5564.137903287818   -5564.137903287818   25121.396149184198  -31802.914597481729    1117.380545009710 
  486000   -5454.651835420183   -5454.651835420183   25250.338820521283  -31794.528932196925    1089.538276255455 
  487000   -5552.490486226081   -5552.490486226081   25131.028708426864  -31802.024644413726    1118.505449760779 
  488000   -5527.871002414846   -5527.871002414846   25240.408926084157  -31798.504115073909    1030.224186574913 
  489000   -5474.713639638365   -5474.713639638365   25213.029479196135  -31794.826952350879    1107.083833516376 
  490000   -5504.490042273392   -5504.490042273392   25206.896520538074  -31798.842739692664    1087.456176881202 
  491000   -5521.971511676184   -5521.971511676184   25129.149192492270  -31800.742237530398    1149.621533361947 
  492000   -5589.425075184787   -5589.425075184787   25051.298411715303  -31797.329595045347    1156.606108145258 
  493000   -5521.965543326522   -5521.965543326522   25227.343387469657  -31803.375503354568    1054.066572558388 
  494000   -5538.555441619083   -5538.555441619083   25234.071847173116  -31796.715296455553    1024.088007663356 
  495000   -5515.315991450680   -5515.315991450680   25167.422460444985  -31800.772524884895    1118.034072989230 
  496000   -5560.024355753594   -5560.024355753594   25155.240926365710  -31798.561152868187    1083.295870748878 
  497000   -5493.950350393701   -5493.950350393701   25227.134315732968  -31797.240301241505    1076.155635114836 
  498000   -5508.488808914230   -5508.488808914230   25236.468639777824  -31798.793913842648    1053.836465150594 
  499000   -5522.807951291816   -5522.807951291816   25170.248062880510  -31801.501079264675    1108.445065092352 
  500000   -5541.413580904064   -5541.413580904064   25190.685807327587  -31800.161960165828    1068.062571934179 
  501000   -5482.483276744384   -5482.483276744384   25191.745197196393  -31800.912941709412    1126.684467768639 
  502000   -5565.416994036357   -5565.416994036357   25077.106691094021  -31796.882888833366    1154.359203702987 
  503000   -5531.795080571639   -5531.795080571639   25166.946591414198  -31798.224349604738    1099.482677618904 
  504000   -5527.019344015163   -5527.019344015163   25221.041138521370  -31799.453092913984    1051.392610377450 
  505000   -5576.070539344830   -5576.070539344830   25056.924750203860  -31803.355642756225    1170.360353207535 
  506000   -5529.056616990645   -5529.056616990645   25207.714057671084  -31799.542646129354    1062.771971467624 
  507000   -5479.281522698133   -5479.281522698133   25311.040701089558  -31803.061056669070    1012.738832881379 
  508000   -5557.661643581068   -5557.661643581068   25119.646848590586  -31804.578461666180    1127.269969494525 
  509000   -5590.782727332073   -5590.782727332073   25112.522532784838  -31799.304113402366    1095.998853285457 
  510000   -5509.695245556744   -5509.695245556744   25213.103212700997  -31798.237510582956    1075.439052325215 
  511000   -5573.196984636641   -5573.196984636641   25144.655490131732  -31801.587845324098    1083.735370555725 
  512000   -5566.341696890315   -5566.341696890315   25151.114684876993  -31797.456390985717    1080.000009218411 
  513000   -5538.536674220279   -5538.536674220279   25135.709404085595  -31798.287062959102    1124.040984653232 
  514000   -5531.165836927717   -5531.165836927717   25184.371852945675  -31797.842298320735    1082.304608447346 
  515000   -5472.159612799107   -5472.159612799107   25293.336099390952  -31803.713502389608    1038.217790199553 
  516000   -5559.384327507185   -5559.384327507185   25178.362040908825  -31799.439304125564    1061.692935709554 
  517000   -5509.261662006233   -5509.261662006233   25171.375267284551  -31801.807323201701    1121.170393910918 
  518000   -5541.878122208807   -5541.878122208807   25162.731601717758  -31799.308675286364    1094.698951359796 
  519000   -5475.075065810932   -5475.075065810932   25237.444062101375  -31799.447947447610    1086.928819535306 
  520000   -5542.120882530424   -5542.120882530424   25170.809729795008  -31801.949002360136    1089.018390034706 
  521000   -5497.171026724045   -5497.171026724045   25203.765715656824  -31804.507952640433    1103.571210259573 
  522000   -5578.630752787139   -5578.630752787139   25130.805353653523  -31797.666912700090    1088.230806259432 
  523000   -5573.795688278427   -5573.795688278427   25065.236197847858  -31804.967467185124    1165.935581058839 
  524000   -5555.756080414692   -5555.756080414692   25104.778334364491  -31797.421782085912    1136.887367306729 
  525000   -5557.330248701226   -5557.330248701226   25103.717463622917  -31802.468353117809    1141.420640793659 
  526000   -5510.337923105413   -5510.337923105413   25257.340055619738  -31803.595513220102    1035.917534494952 
  527000   -5534.965256170741   -5534.965256170741   25132.897324320002  -31801.225430962826    1133.362850472082 
  528000   -5486.043953230295   -5486.043953230295   25188.477059294019  -31795.164494210381    1120.643481686063 
  529000   -5553.726955853792   -5553.726955853792   25106.846414139978  -31804.736209902749    1144.162839908980 
  530000   -5521.358219134341   -5521.358219134341   25234.470009676526  -31800.155181038990    1044.326952228121 
  531000   -5520.391169140326   -5520.391169140326   25161.226280383948  -31796.763026075467    1115.145576551200 
  532000   -5592.870022938994   -5592.870022938994   25116.507174900496  -31803.010014464417    1093.632816624928 
  533000   -5483.456864462463   -5483.456864462463   25319.044583959323  -31800.439727406065     997.938278984280 
  534000   -5534.967846231477   -5534.967846231477   25142.819387106661  -31802.370403976740    1124.583170638599 
  535000   -5528.473651301061   -5528.473651301061   25197.375490355724  -31801.591856747433    1075.742715090647 
  536000   -5548.015242405148   -5548.015242405148   25140.609265504267  -31799.772651960826    1111.148144051416 
  537000   -5443.656851233714   -5443.656851233714   25268.549870059174  -31797.406142591277    1085.199421298382 
  538000   -5476.206817543956   -5476.206817543956   25220.841936127821  -31799.030718033900    1101.981964362127 
  539000   -5515.474448568373   -5515.474448568373   25205.037861418299  -31799.769268676308    1079.256958689638 
  540000   -5502.440429331808   -5502.440429331808   25179.225254596502  -31801.058119645910    1119.392435717603 
  541000   -5531.332216029023   -5531.332216029023   25073.545869222704  -31797.658118045245    1192.780032793522 
  542000   -5519.149308650609   -5519.149308650609   25207.383628263618  -31798.397478203078    1071.864541288852 
  543000   -5439.667243715903   -5439.667243715903   25245.149545130411  -31796.554086315584    1111.737297469268 
  544000   -5465.382090281892   -5465.382090281892   25267.458494388513  -31796.290375110580    1063.449790440179 
  545000   -5465.261293312094   -5465.261293312094   25262.653357368450  -31796.461979640288    1068.547328959743 
  546000   -5474.078031070207   -5474.078031070207   25258.693840030897  -31793.439946681749    1060.668075580650 
  547000   -5495.428227558627   -5495.428227558627   25211.617316717799  -31803.575352956988    1096.529808680558 
  548000   -5530.081599661044   -5530.081599661044   25223.468158391915  -31800.240850076840    1046.691092023884 
  549000   -5473.337687798099   -5473.337687798099   25291.269324553192  -31799.198304473910    1034.591292122617 
  550000   -5520.953972801213   -5520.953972801213   25183.459328964986  -31800.871599710899    1096.458297944697 
  551000   -5546.236059858813   -5546.236059858813   25191.016762200175  -31799.475644886443    1062.222822827457 
  552000   -5502.322707432853   -5502.322707432853   25178.799081311794  -31797.355190841943    1116.233402097296 
  553000   -5571.389767682347   -5571.389767682347   25112.762963487465  -31801.283065734398    1117.130334564585 
  554000   -5577.188339098466   -5577.188339098466   25192.902772495803  -31798.897714818464    1028.806603224190 
  555000   -5537.704781005687   -5537.704781005687   25208.386509072319  -31798.782221945647    1052.690931867636 
  556000   -5512.740987101646   -5512.740987101646   25250.183878776777  -31800.081304889041    1037.156439010615 
  557000   -5543.899420528433   -5543.899420528433   25156.027299747282  -31800.879070181240    1100.952349905527 
  558000   -5569.171581137958   -5569.171581137958   25168.440772605183  -31795.877473299017    1058.265119555874 
  559000   -5492.231348909507   -5492.231348909507   25186.989439492139  -31797.790628320003    1118.569839918356 
  560000   -5577.699170080752   -5577.699170080752   25154.472885110219  -31806.229256410490    1074.057201219520 
  561000   -5479.708775509032   -5479.708775509032   25232.887842685624  -31801.807631578798    1089.211013384141 
  562000   -5552.984408662440   -5552.984408662440   25152.066155808981  -31802.679401352605    1097.628836881180 
  563000   -5473.256182637768   -5473.256182637768   25316.064034620729  -31797.612265785534    1008.292048527033 
  564000   -5552.866643336059   -5552.866643336059   25128.214300290667  -31802.767199668775    1121.686256042047 
  565000   -5566.852468434889   -5566.852468434889   25131.237004599796  -31799.612485845850    1101.523012811158 
  566000   -5583.570009358482   -5583.570009358482   25078.287244893116  -31798.825362027732    1136.968107776136 
  567000   -5536.023787590213   -5536.023787590213   25178.295254927631  -31800.443126866630    1086.124084348785 
  568000   -5498.742124662196   -5498.742124662196   25194.295437089146  -31795.775173677317    1102.737611925974 
  569000   -5546.894170895084   -5546.894170895084   25147.212269450938  -31804.074672872830    1109.968232526811 
  570000   -5464.365273326530   -5464.365273326530   25259.678697514217  -31800.914498488786    1076.870527648041 
  571000   -5594.162182072731   -5594.162182072731   25116.488155732059  -31801.876806729968    1091.226468925179 
  572000   -5493.847715557520   -5493.847715557520   25124.506335413313  -31789.575317765182    1171.221266794347 
  573000   -5508.223160478985   -5508.223160478985   25194.129753725610  -31801.029022105566    1098.676107900972 
  574000   -5535.027272989628   -5535.027272989628   25144.658185662025  -31800.855246288735    1121.169787637081 
  575000   -5554.916918704268   -5554.916918704268   25092.854570792588  -31799.776290475897    1152.004800979038 
  576000   -5532.554801780439   -5532.554801780439   25176.848595102703  -31797.775847737867    1088.372450854723 
  577000   -5552.890150306681   -5552.890150306681   25135.976229251875  -31802.296379630665    1113.430000072111 
  578000   -5614.213916614492   -5614.213916614492   25047.713718813793  -31800.029837757680    1138.102202329393 
  579000   -5578.596835752836   -5578.596835752836   25124.102601852974  -31799.394636591842    1096.695198986034 
  580000   -5597.802763278101   -5597.802763278101   25043.360738164542  -31801.635330118152    1160.471828675507 
  581000   -5519.505164085826   -5519.505164085826   25196.655375824677  -31797.944292879023    1081.783752968517 
  582000   -5450.727899516525   -5450.727899516525   25264.278205970601  -31796.208254307712    1081.202148820588 
  583000   -5522.179014369129   -5522.179014369129   25148.643698776454  -31801.656454553671    1130.833741408088 
  584000   -5533.506835195305   -5533.506835195305   25182.282766267643  -31800.989266848304    1085.199665385355 
  585000   -5464.970625317113   -5464.970625317113   25273.227525066046  -31799.679759248738    1061.481608865579 
  586000   -5552.471022822450   -5552.471022822450   25112.435741004643  -31801.684054285914    1136.777290458818 
  587000   -5497.000501509199   -5497.000501509199   25226.370356542368  -31802.108721065037    1078.737863013469 
  588000   -5497.190937524651   -5497.190937524651   25257.316975662859  -31798.600526273603    1044.092613086097 
  589000   -5459.735432146521   -5459.735432146521   25263.631574479328  -31798.249457004935    1074.882450379085 
  590000   -5531.322904440265   -5531.322904440265   25192.788646374400  -31799.749145584301    1075.637594769632 
  591000   -5572.945228773806   -5572.945228773806   25116.603762545521  -31801.741458412343    1112.192467093020 
  592000   -5539.381186570718   -5539.381186570718   25127.201618855219  -31792.429085685773    1125.846280259839 
  593000   -5565.790864769177   -5565.790864769177   25130.525670120165  -31802.277783229518    1105.961248340175 
  594000   -5533.709634832081   -5533.709634832081   25190.550610453312  -31801.366573052768    1077.106327767372 
  595000   -5563.725201399222   -5563.725201399222   25248.057047159280  -31801.856841324039     990.074592765537 
  596000   -5460.266591341235   -5460.266591341235   25282.096422327792  -31801.836838264346    1059.473824595320 
  597000   -5538.355593000080   -5538.355593000080   25191.134917637366  -31800.115821622981    1070.625310985532 
  598000   -5470.944123515696   -5470.944123515696   25281.794032601603  -31801.277892730333    1048.539736613037 
  599000   -5523.959967507210   -5523.959967507210   25115.800827578529  -31799.638365609211    1159.877570523469 
  600000   -5475.037678938515   -5475.037678938515   25329.036235575928  -31799.109979774777     995.036065260336 
  601000   -5436.446312604123   -5436.446312604123   25293.153354639006  -31799.905426815414    1070.305759572285 
  602000   -5506.060275052503   -5506.060275052503   25188.569170034556  -31798.881350105985    1104.251905018919 
  603000   -5530.381439222299   -5530.381439222299   25176.058192376404  -31799.296514455200    1092.856882856497 
  604000   -5504.550689813630   -5504.550689813630   25223.209172509989  -31799.283131614029    1071.523269290413 
  605000   -5493.649441100028   -5493.649441100028   25199.319238107164  -31795.791567664095    1102.822888456902 
  606000   -5561.806504244898   -5561.806504244898   25148.032419590018  -31798.747001734690    1088.908077899774 
  607000   -5534.743157857247   -5534.743157857247   25166.896316093691  -31801.475545336070    1099.836071385135 
  608000   -5489.589742337754   -5489.589742337754   25238.976156737393  -31800.386783859685    1071.820884784536 
  609000   -5517.813826200276   -5517.813826200276   25186.768957489418  -31798.392075648590    1093.809291958898 
  610000   -5563.287132505480   -5563.287132505480   25110.524889781747  -31799.420507256302    1125.608484969078 
  611000   -5482.777526302150   -5482.777526302150   25190.863674253575  -31797.301271060413    1123.660070504686 
  612000   -5522.421504361035   -5522.421504361035   25220.880329317868  -31799.679203483025    1056.377369804121 
  613000   -5525.544749783949   -5525.544749783949   25141.590883944951  -31801.033901279676    1133.898267550776 
  614000   -5514.021980682788   -5514.021980682788   25211.014824228783  -31802.724113920798    1077.687309009224 
  615000   -5531.657708413219   -5531.657708413219   25208.530746892873  -31797.771957047556    1057.583501741469 
  616000   -5552.734750771975   -5552.734750771975   25138.629131972364  -31802.651652298235    1111.287769553897 
  617000   -5556.844936590969   -5556.844936590969   25115.565374459125  -31800.061672896205    1127.651361846109 
  618000   -5536.616921112418   -5536.616921112418   25129.936604206414  -31801.410608800819    1134.857083481985 
  619000   -5470.746093615257   -5470.746093615257   25224.044283535910  -31799.543020808851    1104.752643657681 
  620000   -5544.269863765581   -5544.269863765581   25157.547850717543  -31799.277426338442    1097.459711855314 
  621000   -5568.823232676677   -5568.823232676677   25106.180394574178  -31802.194996384500    1127.191369133641 
  622000   -5559.861434050894   -5559.861434050894   25157.142219351277  -31800.400119778518    1083.396466376351 
  623000   -5517.202077419042   -5517.202077419042   25215.753612081615  -31798.658145148220    1065.702455647562 
  624000   -5494.295033498616   -5494.295033498616   25154.828185584665  -31797.380196101378    1148.256977018093 
  625000   -5574.361787988881   -5574.361787988881   25111.627803021875  -31800.393588915409    1114.403997904653 
  626000   -5580.699008641481   -5580.699008641481   25216.104159765331  -31799.330898513879    1002.527730107068 
  627000   -5477.648094339798   -5477.648094339798   25271.148369375427  -31800.416249292633    1051.619785577412 
  628000   -5487.950103136285   -5487.950103136285   25178.790617104460  -31801.651008948909    1134.910288708162 
  629000   -5562.378775779707   -5562.378775779707   25098.469323049649  -31799.883442622540    1139.035343793181 
  630000   -5530.011314614603   -5530.011314614603   25127.604264255278  -31801.721566477456    1144.105987607574 
  631000   -5550.556944759857   -5550.556944759857   25167.387727358968  -31802.545679341278    1084.601007222453 
  632000   -5548.844532472187   -5548.844532472187   25141.020732355915  -31802.224025971045    1112.358761142946 
  633000   -5501.733537047559   -5501.733537047559   25244.896937426653  -31801.657577396847    1055.027102922637 
  634000   -5507.746060702306   -5507.746060702306   25209.527485692550  -31799.803724515532    1082.530178120674 
  635000   -5501.645688415472   -5501.645688415472   25216.162223633270  -31797.340797399600    1079.532885350853 
  636000   -5539.321688462813   -5539.321688462813   25175.918177462019  -31801.683639811436    1086.443773886607 
  637000   -5556.468641544026   -5556.468641544026   25115.268918269503  -31796.771691001253    1125.034131187718 
  638000   -5555.128181928998   -5555.128181928998   25183.583198620596  -31802.093270103924    1063.381889554333 
  639000   -5510.679011590881   -5510.679011590881   25189.052398152122  -31796.606946035612    1096.875536292610 
  640000   -5568.771256972002   -5568.771256972002   25079.945781825474  -31798.926832511064    1150.209793713588 
  641000   -5492.961918193192   -5492.961918193192   25269.515301237920  -31799.784946755193    1037.307727324079 
  642000   -5554.785400281507   -5554.785400281507   25132.329575185318  -31803.542216247064    1116.427240780244 
  643000   -5532.775836141423   -5532.775836141423   25184.295612560087  -31800.396776859430    1083.325328157918 
  644000   -5542.867675575140   -5542.867675575140   25217.008040888621  -31801.178289293086    1041.302572829326 
  645000   -5546.544013186121   -5546.544013186121   25144.432866175157  -31799.721196875420    1108.744317514142 
  646000   -5487.924507314005   -5487.924507314005   25241.467708474138  -31798.525441223079    1069.133225434937 
  647000   -5556.472149978890   -5556.472149978890   25252.413383186140  -31802.795628037962     993.910094872937 
  648000   -5510.218422866088   -5510.218422866088   25193.599724321066  -31799.328874315295    1095.510727128143 
  649000   -5454.079472800713   -5454.079472800713   25273.534297227703  -31800.458735700595    1072.844965672180 
  650000   -5488.195083062681   -5488.195083062681   25215.711720046140  -31802.786765241013    1098.879962132194 
  651000   -5504.374802478738   -5504.374802478738   25191.242762684717  -31802.622597355643    1107.005032192183 
  652000   -5570.138690793949   -5570.138690793949   25105.061579881716  -31797.239376759251    1122.039106083587 
  653000   -5532.721145553038   -5532.721145553038   25225.593165924296  -31800.527678672570    1042.213367195242 
  654000   -5541.083367892174   -5541.083367892174   25138.388770436723  -31799.347390329753    1119.875252000855 
  655000   -5504.456200340614   -5504.456200340614   25128.640403129059  -31800.241017433931    1167.144413964263 
  656000   -5514.911932309529   -5514.911932309529   25212.943048088469  -31796.844329331445    1068.989348933445 
  657000   -5566.191855243549   -5566.191855243549   25109.091750674539  -31801.907344464966    1126.623738546874 
  658000   -5559.862469682193   -5559.862469682193   25085.966922228054  -31799.662131958648    1153.832740048403 
  659000   -5586.283822092166   -5586.283822092166   25064.251551767506  -31795.988376850863    1145.453002991194 
  660000   -5528.044289363595   -5528.044289363595   25181.907422876087  -31799.578476131963    1089.626763892276 
  661000   -5548.637692638047   -5548.637692638047   25162.372993911529  -31798.837512539496    1087.826825989923 
  662000   -5519.840333700438   -5519.840333700438   25260.536815268966  -31803.516774880289    1023.139625910885 
  663000   -5481.675228737378   -5481.675228737378   25258.225719048987  -31799.854745576409    1059.953797790039 
  664000   -5517.834482185655   -5517.834482185655   25228.408694847909  -31796.377148641674    1050.133971608108 
  665000   -5572.959457291006   -5572.959457291006   25093.728221707133  -31799.248098800272    1132.560419802133 
  666000   -5553.289608283576   -5553.289608283576   25080.983259133918  -31802.942080983616    1168.669213566125 
  667000   -5500.936439324447   -5500.936439324447   25243.541534407974  -31800.700221274434    1056.222247542010 
  668000   -5549.587944053761   -5549.587944053761   25156.310150195015  -31800.882483923055    1094.984389674285 
  669000   -5520.835267440401   -5520.835267440401   25219.982242357924  -31798.178902912343    1057.361393114017 
  670000   -5535.605452648426   -5535.605452648426   25214.923487807624  -31803.053446747657    1052.524506291609 
  671000   -5598.157485779229   -5598.157485779229   24980.452203175111  -31801.224313553033    1222.614624598692 
  672000   -5521.708169289737   -5521.708169289737   25191.275663392109  -31797.824316686314    1084.840484004468 
  673000   -5544.747084692950   -5544.747084692950   25154.689603340303  -31800.649089007235    1101.212400973987 
  674000   -5574.877293461497   -5574.877293461497   25168.415057382372  -31796.163399028159    1052.871048184292 
  675000   -5442.781240600954   -5442.781240600954   25292.807875696675  -31795.593158105556    1060.004041807925 
[...]
 4838000   -5519.801757841611   -5519.801757841611   24925.897952302745  -31547.296681652515    1101.596971508154 
 4839000   -5503.058183350160   -5503.058183350160   25008.965425297611  -31546.139650333349    1034.116041685578 
 4840000   -5473.012584167369   -5473.012584167369   25027.293386954188  -31551.428776177880    1051.122805056322 
 4841000   -5614.496265567159   -5614.496265567159   24795.494659914330  -31547.743787759900    1137.752862278410 
 4842000   -5587.346090862149   -5587.346090862149   24772.241280860486  -31549.577938474024    1189.990566751388 
 4843000   -5490.967756440237   -5490.967756440237   24980.341071196468  -31550.027261680796    1078.718434044094 
 4844000   -5509.942233637579   -5509.942233637579   24926.701504100580  -31550.427476615980    1113.783738877822 
 4845000   -5498.909475530389   -5498.909475530389   24948.095448268286  -31552.388648525295    1105.383724726619 
 4846000   -5545.305411883768   -5545.305411883768   24885.148995878579  -31546.350117508038    1115.895709745693 
 4847000   -5473.526404957869   -5473.526404957869   24985.713903519943  -31547.279847837777    1088.039539359967 
 4848000   -5501.896608597897   -5501.896608597897   24902.779819989362  -31548.904208330350    1144.227779743092 
 4849000   -5478.069892959589   -5478.069892959589   24987.958465687661  -31544.874846353963    1078.846487706712 
 4850000   -5577.303664077117   -5577.303664077117   24873.258546968969  -31553.150334287617    1102.588123241533 
 4851000   -5502.992117974569   -5502.992117974569   24982.119823698209  -31549.087964308539    1063.976022635761 
 4852000   -5540.631724466981   -5540.631724466981   24923.783858927498  -31549.150687137389    1084.735103742909 
 4853000   -5505.190669847914   -5505.190669847914   25026.709997982660  -31553.475277442034    1021.574609611465 
 4854000   -5593.918518638751   -5593.918518638751   24898.802109397464  -31551.362939388247    1058.642311352032 
 4855000   -5456.998395123937   -5456.998395123937   25045.200724029390  -31547.550899040096    1045.351779886770 
 4856000   -5501.721220545773   -5501.721220545773   24976.359472749453  -31548.868832001001    1070.788138705774 
 4857000   -5488.243994225315   -5488.243994225315   24952.830048895015  -31545.517386280851    1104.443343160520 
 4858000   -5468.352016738052   -5468.352016738052   25049.668597654334  -31549.135486185780    1031.114871793396 
 4859000   -5505.050980724773   -5505.050980724773   24929.993894948537  -31550.098170160822    1115.053294487511 
 4860000   -5465.965488609811   -5465.965488609811   25005.825638050184  -31547.560480773456    1075.769354113460 
 4861000   -5479.477640892568   -5479.477640892568   25021.488982134848  -31545.993687841590    1045.027064814175 
 4862000   -5524.523877497857   -5524.523877497857   24960.903828352264  -31548.549564728884    1063.121858878761 
 4863000   -5526.531566754438   -5526.531566754438   24908.903461905040  -31552.242049603727    1116.807020944244 
 4864000   -5505.065067149510   -5505.065067149510   24929.409518489018  -31549.729415667629    1115.254830029098 
 4865000   -5574.792459293698   -5574.792459293698   24884.320595815487  -31549.261406023237    1090.148350914047 
 4866000   -5520.426070154066   -5520.426070154066   24920.871878205849  -31548.770308756924    1107.472360397011 
 4867000   -5547.301193079820   -5547.301193079820   24928.360594274251  -31551.204473441165    1075.542686087095 
 4868000   -5580.276161555714   -5580.276161555714   24784.577016533560  -31549.031565042053    1184.178386952778 
 4869000   -5452.042188729672   -5452.042188729672   25025.284616624311  -31550.784844225360    1073.458038871376 
 4870000   -5478.672662537276   -5478.672662537276   25082.581222966390  -31549.293630905817     988.039745402155 
 4871000   -5450.404593939453   -5450.404593939453   25086.109157891628  -31552.103634427065    1015.589882595983 
 4872000   -5545.314455784006   -5545.314455784006   24924.165680825354  -31552.561822179956    1083.081685570593 
 4873000   -5565.213607471975   -5565.213607471975   24866.733690960711  -31549.948250164041    1118.000951731357 
 4874000   -5517.784220413414   -5517.784220413414   24955.228985295445  -31553.397610146872    1080.384404438012 
 4875000   -5532.383117461108   -5532.383117461108   24865.586583438086  -31546.274719853514    1148.305018954322 
 4876000   -5525.369493390219   -5525.369493390219   24889.916637486884  -31548.920227248425    1133.634096371325 
 4877000   -5492.206426325123   -5492.206426325123   24895.186347839590  -31546.576473642966    1159.183699478257 
 4878000   -5520.239144804593   -5520.239144804593   24926.804752957811  -31551.496260937500    1104.452363175098 
 4879000   -5518.238144469899   -5518.238144469899   25004.777540425930  -31546.690793052032    1023.675108156206 
 4880000   -5522.997019971026   -5522.997019971026   24947.292031750720  -31546.855665114737    1076.566613392990 
 4881000   -5572.499814943152   -5572.499814943152   24943.753943095569  -31549.146603268531    1032.892845229806 
 4882000   -5594.426559443968   -5594.426559443968   24842.228675582119  -31551.702920771368    1115.047685745280 
 4883000   -5503.631514063101   -5503.631514063101   24993.859368104761  -31550.093454145088    1052.602571977220 
 4884000   -5505.609066703630   -5505.609066703630   24910.289736772116  -31551.805958804987    1135.907155329242 
 4885000   -5535.229126236725   -5535.229126236725   24957.734946919427  -31549.982019275849    1057.017946119696 
 4886000   -5506.933406004035   -5506.933406004035   24909.533698054438  -31549.080537094822    1132.613433036354 
 4887000   -5497.904354703493   -5497.904354703493   24950.649158581247  -31553.723326195843    1105.169812911101 
 4888000   -5525.373583782657   -5525.373583782657   24933.220316760704  -31550.804849616627    1092.210949073268 
 4889000   -5532.857156937152   -5532.857156937152   24938.183232339659  -31549.909949947702    1078.869560670890 
 4890000   -5450.879450502282   -5450.879450502282   25057.935019719509  -31550.791130565867    1041.976660344074 
 4891000   -5553.978893763458   -5553.978893763458   24851.309199910018  -31551.783145037069    1146.495051363595 
 4892000   -5537.723234571196   -5537.723234571196   24912.319926729368  -31546.636554075692    1096.593392775130 
 4893000   -5510.476119847837   -5510.476119847837   24911.112380707404  -31547.848158164474    1126.259657609237 
 4894000   -5467.505717796408   -5467.505717796408   24974.579463823899  -31550.113197690520    1108.028016070212 
 4895000   -5550.398363668890   -5550.398363668890   24925.694168515354  -31548.297612041210    1072.205079856966 
 4896000   -5524.483258125536   -5524.483258125536   24974.794329714692  -31551.459155647859    1052.181567807630 
 4897000   -5547.379996866544   -5547.379996866544   24873.730346271775  -31552.934844714542    1131.824501576223 
 4898000   -5541.671228420066   -5541.671228420066   24880.827803192831  -31550.220642283479    1127.721610670583 
 4899000   -5559.532587104175   -5559.532587104175   24884.259899540775  -31548.297481335809    1104.504994690859 
 4900000   -5572.578155968145   -5572.578155968145   24814.995754214164  -31552.024845229051    1164.450935046742 
 4901000   -5544.641766857738   -5544.641766857738   24948.842563117461  -31549.488518884536    1056.004188909337 
 4902000   -5463.944919809124   -5463.944919809124   25085.146269706845  -31546.630206084646     997.539016568680 
 4903000   -5448.435788806983   -5448.435788806983   24963.655470685670  -31548.451067526676    1136.359808034024 
 4904000   -5484.056198702991   -5484.056198702991   24954.127868945681  -31550.108331934778    1111.924264286106 
 4905000   -5507.727410580424   -5507.727410580424   24913.891927156757  -31545.010984647623    1123.391646910444 
 4906000   -5528.892040320563   -5528.892040320563   24901.300328666741  -31545.376529137400    1115.184160150095 
 4907000   -5541.855910960745   -5541.855910960745   24904.264688751977  -31554.108042010324    1107.987442297604 
 4908000   -5510.233786462024   -5510.233786462024   25015.556147642405  -31551.514383265385    1025.724449160960 
 4909000   -5489.232148094085   -5489.232148094085   24951.998905972439  -31546.903001374510    1105.671947307983 
 4910000   -5480.777487807540   -5480.777487807540   24958.183516253623  -31546.618631647052    1107.657627585889 
 4911000   -5492.209299118051   -5492.209299118051   24941.227764377451  -31550.189087354782    1116.752023859284 
 4912000   -5541.829304673087   -5541.829304673087   24885.956690953317  -31550.885116503505    1123.099120877101 
 4913000   -5561.056967836466   -5561.056967836466   24850.478541821081  -31549.098616787298    1137.563107129753 
 4914000   -5564.831869947222   -5564.831869947222   24841.339523308463  -31552.933341858421    1146.761948602736 
 4915000   -5554.200278509041   -5554.200278509041   24894.921424594915  -31549.814311635990    1100.692608532032 
 4916000   -5524.802881880431   -5524.802881880431   24854.914207462061  -31547.051920781960    1167.334831439473 
 4917000   -5555.796556043791   -5555.796556043791   24825.830862882205  -31554.699650431317    1173.072231505317 
 4918000   -5574.613732549024   -5574.613732549024   24899.610218289541  -31554.868054998242    1080.644104159680 
 4919000   -5594.802733681012   -5594.802733681012   24746.677494225813  -31550.841421777783    1209.361193870960 
 4920000   -5621.383776105205   -5621.383776105205   24810.815299754169  -31551.144577235842    1118.945501376472 
 4921000   -5563.253086557215   -5563.253086557215   24911.314015442294  -31547.284461977753    1072.717359978242 
 4922000   -5511.398717120141   -5511.398717120141   24909.852763782630  -31549.576978587469    1128.325497684697 
 4923000   -5559.753320525480   -5559.753320525480   24963.849178091135  -31553.052866273050    1029.450367656432 
 4924000   -5492.588057363580   -5492.588057363580   24931.450282624159  -31547.712203923904    1123.673863936157 
 4925000   -5544.192870718402   -5544.192870718402   24822.875462226231  -31551.857856054794    1184.789523110157 
 4926000   -5570.501540118828   -5570.501540118828   24858.172820357708  -31548.138237617804    1119.463877141271 
 4927000   -5564.797854787827   -5564.797854787827   24865.356006789309  -31551.087006995647    1120.933145418508 
 4928000   -5506.596423281117   -5506.596423281117   24965.405631318034  -31549.021265561663    1077.019210962520 
 4929000   -5475.865935871294   -5475.865935871294   24995.400665076035  -31549.473449069479    1078.206848122150 
 4930000   -5536.754530996885   -5536.754530996885   24971.479975038877  -31550.023183983103    1041.788677947344 
 4931000   -5506.630714465209   -5506.630714465209   24921.033615068489  -31547.409231666468    1119.744902132767 
 4932000   -5485.315147503527   -5485.315147503527   24978.911395459862  -31549.608376072472    1085.381833109083 
 4933000   -5501.609983083490   -5501.609983083490   24986.132049977863  -31551.794479547327    1064.052446485968 
 4934000   -5478.140503578648   -5478.140503578648   25009.271912171971  -31551.459492415848    1064.047076665231 
 4935000   -5527.203700312784   -5527.203700312784   24920.870432487449  -31550.515559767256    1102.441426967020 
 4936000   -5530.550473022831   -5530.550473022831   24956.192330762962  -31550.411311939981    1063.668508154188 
 4937000   -5526.277765777035   -5526.277765777035   24934.309300174209  -31551.457109948537    1090.870043997291 
 4938000   -5509.335761312457   -5509.335761312457   24875.229463888525  -31549.274157288728    1164.708932087748 
 4939000   -5555.378035329762   -5555.378035329762   24938.609315474470  -31550.509233206525    1056.521882402290 
 4940000   -5528.964569485935   -5528.964569485935   24914.435722461814  -31547.245552827415    1103.845260879659 
 4941000   -5601.789848939105   -5601.789848939105   24842.213619237882  -31550.477242476703    1106.473774299721 
 4942000   -5570.551804777122   -5570.551804777122   24939.232739241768  -31551.105459735783    1041.320915716896 
 4943000   -5517.450791522228   -5517.450791522228   24898.883493974150  -31547.328893713347    1130.994608216974 
 4944000   -5582.854398006377   -5582.854398006377   24876.018750277464  -31550.629896047285    1091.756747763447 
 4945000   -5519.193947421823   -5519.193947421823   24954.593287476058  -31550.839627502883    1077.052392604999 
 4946000   -5491.440366372291   -5491.440366372291   24904.428294620328  -31552.329243885622    1156.460582893000 
 4947000   -5535.128244525244   -5535.128244525244   25016.461131462744  -31551.515532846053     999.926156858065 
 4948000   -5498.696091710593   -5498.696091710593   24968.346477739211  -31544.944584837071    1077.902015387264 
 4949000   -5477.161694765116   -5477.161694765116   24977.803099013672  -31550.760083126454    1095.795289347664 
 4950000   -5543.774074030716   -5543.774074030716   24892.378956416338  -31553.156328776113    1117.003298329059 
 4951000   -5572.347555232554   -5572.347555232554   24892.809488593201  -31547.641946639749    1082.484902813991 
 4952000   -5507.431872092533   -5507.431872092533   24887.473590736383  -31546.897244971045    1151.991782142132 
 4953000   -5530.437628073763   -5530.437628073763   24967.592704118695  -31548.447972343380    1050.417640150921 
 4954000   -5554.091848417931   -5554.091848417931   24820.724235586804  -31549.709170127066    1174.893086122328 
 4955000   -5561.563426990841   -5561.563426990841   24921.151598344615  -31551.901725320451    1069.186699984993 
 4956000   -5529.534408878706   -5529.534408878706   24916.371435763827  -31550.613655500023    1104.707810857484 
 4957000   -5504.213471836469   -5504.213471836469   24997.053238571556  -31545.778049410936    1044.511339002911 
 4958000   -5502.693441312760   -5502.693441312760   24915.276485387854  -31550.051633105839    1132.081706405223 
 4959000   -5541.803478091151   -5541.803478091151   24939.539843018083  -31551.258219156643    1069.914898047407 
 4960000   -5548.640997685376   -5548.640997685376   24868.006223505807  -31546.330277427616    1129.683056236433 
 4961000   -5524.295517303326   -5524.295517303326   24886.302339694543  -31547.944880929259    1137.347023931396 
 4962000   -5516.381796046455   -5516.381796046455   24904.120395719881  -31548.802202519521    1128.300010753180 
 4963000   -5597.488737643522   -5597.488737643522   24844.608541566708  -31550.666003629951    1108.568724419721 
 4964000   -5505.402572647556   -5505.402572647556   24932.936788251471  -31548.372418801326    1110.033057902299 
 4965000   -5529.338249697154   -5529.338249697154   24937.077559690297  -31546.623048890633    1080.207239503186 
 4966000   -5607.288983587448   -5607.288983587448   24814.794158908258  -31552.516981567853    1130.433839072145 
 4967000   -5542.556024015223   -5542.556024015223   24913.050217392520  -31553.170790542539    1097.564549134795 
 4968000   -5545.328853743049   -5545.328853743049   24936.992960991131  -31549.831590325732    1067.509775591556 
 4969000   -5532.219062578482   -5532.219062578482   24881.910628782127  -31551.216136226420    1137.086444865814 
 4970000   -5537.420233633256   -5537.420233633256   24905.623144319332  -31547.429950954578    1104.386573001994 
 4971000   -5552.334993026376   -5552.334993026376   24928.378983196901  -31549.310737034797    1068.596760811520 
 4972000   -5564.607865999475   -5564.607865999475   24896.734867773343  -31552.361441639416    1091.018707866597 
 4973000   -5552.265742569907   -5552.265742569907   24900.728629397076  -31550.429859274751    1097.435487307763 
 4974000   -5526.141351649596   -5526.141351649596   24989.104184748125  -31549.074651162322    1033.829114764604 
 4975000   -5552.181532842773   -5552.181532842773   24938.530894433981  -31552.608055710556    1061.895628433801 
 4976000   -5496.505700780992   -5496.505700780992   24975.196273972084  -31547.066508524182    1075.364533771105 
 4977000   -5551.679987646407   -5551.679987646407   24883.361212380427  -31551.538158651922    1116.496958625086 
 4978000   -5554.211464076692   -5554.211464076692   24917.892453247470  -31550.357003079484    1078.253085755320 
 4979000   -5508.315867661357   -5508.315867661357   25002.473613399106  -31547.251361004437    1036.461879943979 
 4980000   -5470.713304151028   -5470.713304151028   24998.445839939275  -31547.118011382558    1077.958867292255 
 4981000   -5529.743328010863   -5529.743328010863   24960.460017092613  -31546.792943422752    1056.589598319272 
 4982000   -5547.480509205736   -5547.480509205736   24924.121310026654  -31546.646806335233    1075.044987102841 
 4983000   -5515.636921882156   -5515.636921882156   24884.849635375642  -31548.768193927655    1148.281636669854 
 4984000   -5494.036949805813   -5494.036949805813   25006.514447334703  -31547.058035486476    1046.506638345961 
 4985000   -5571.117233569727   -5571.117233569727   24871.465410181816  -31549.774782556593    1107.192138805050 
 4986000   -5552.819216591182   -5552.819216591182   24905.194124223264  -31549.909183727868    1091.895842913425 
 4987000   -5502.110005710671   -5502.110005710671   24855.552245264385  -31548.295720613107    1190.633469638052 
 4988000   -5561.848195751591   -5561.848195751591   24872.250628016183  -31549.929404108374    1115.830580340601 
 4989000   -5439.095272075945   -5439.095272075945   25047.080583462019  -31547.866586036045    1061.690730498082 
 4990000   -5509.239528078590   -5509.239528078590   24939.820412954647  -31550.905505068426    1101.845564035194 
 4991000   -5611.046436400942   -5611.046436400942   24824.375672131580  -31549.699686644875    1114.277578112352 
 4992000   -5491.676248310814   -5491.676248310814   24978.715114705818  -31548.445423750647    1078.054060734014 
 4993000   -5562.775720587320   -5562.775720587320   24885.394425049853  -31552.785675421423    1104.615529784250 
 4994000   -5548.670549755105   -5548.670549755105   24918.198076533507  -31549.296184431038    1082.427558142431 
 4995000   -5564.753814212949   -5564.753814212949   24808.886744641313  -31546.339811496859    1172.699252642594 
 4996000   -5460.042885165603   -5460.042885165603   25060.988579603665  -31551.286095088424    1030.254630319153 
 4997000   -5533.743103862864   -5533.743103862864   24891.013010977971  -31549.108936916553    1124.352822075720 
 4998000   -5526.552274771526   -5526.552274771526   24926.439762982674  -31552.589388548171    1099.597350793972 
 4999000   -5525.456619043787   -5525.456619043787   24917.598462154441  -31549.293108358423    1106.238027160197 
 5000000   -5583.490702247240   -5583.490702247240   24882.186665634552  -31551.348108231046    1085.670740349253 
Loop time of 29.9323 on 8 procs for 5001 steps with 1503 atoms

Performance: 14.435 ns/day, 1.663 hours/ns, 167.077 timesteps/s
98.9% CPU use with 8 MPI tasks x 1 OpenMP threads

MPI task timing breakdown:
Section |  min time  |  avg time  |  max time  |%varavg| %total
---------------------------------------------------------------
Pair    | 0          | 0          | 0          |   0.0 |  0.00
Bond    | 0          | 0          | 0          |   0.0 |  0.00
Kspace  | 0          | 0          | 0          |   0.0 |  0.00
Neigh   | 0          | 0          | 0          |   0.0 |  0.00
Comm    | 0          | 0          | 0          |   0.0 |  0.00
Output  | 0          | 0          | 0          |   0.0 |  0.00
Modify  | 0          | 0          | 0          |   0.0 |  0.00
Other   |            | 29.93      |            |       |100.00

Nlocal:    187.875 ave 197 max 176 min
Histogram: 1 1 0 1 0 1 0 1 1 2
Nghost:    4535.62 ave 4595 max 4483 min
Histogram: 2 1 1 0 0 1 0 0 2 1
Neighs:    66271.6 ave 69821 max 62104 min
Histogram: 1 1 1 0 1 0 1 0 1 2

Total # of neighbors = 530173
Ave neighs/atom = 352.743
Ave special neighs/atom = 2
Neighbor list builds = 0
Dangerous builds = 0
Total wall time: 0:01:30
