LAMMPS (3 Mar 2020)
  using 1 OpenMP thread(s) per MPI task
Reading data file ...
  orthogonal box = (0 0 0) to (24 24 24)
  2 by 2 by 2 MPI processor grid
  reading atoms ...
  1503 atoms
  scanning bonds ...
  2 = max bonds/atom
  scanning angles ...
  1 = max angles/atom
  reading bonds ...
  1002 bonds
  reading angles ...
  501 angles
Finding 1-2 1-3 1-4 neighbors ...
  special bond factors lj:   0          0          0         
  special bond factors coul: 0          0          0         
  2 = max # of 1-2 neighbors
  1 = max # of 1-3 neighbors
  1 = max # of 1-4 neighbors
  2 = max # of special neighbors
  special bonds CPU = 0.00105545 secs
  read_data CPU = 0.0123272 secs
Setting atom values ...
  1 settings made for charge
Setting atom values ...
  2 settings made for charge
WARNING: Using 'neigh_modify every 1 delay 0 check yes' setting during minimization (src/min.cpp:190)
PPPM initialization ...
  using 12-bit tables for long-range coulomb (src/kspace.cpp:332)
  G vector (1/distance) = 0.315108
  grid = 24 24 24
  stencil order = 5
  estimated absolute RMS force accuracy = 0.0017115
  estimated relative force accuracy = 5.15414e-06
  using double precision MKL FFT
  3d grid and FFT values/proc = 6859 1728
Neighbor list info ...
  update every 1 steps, delay 0 steps, check yes
  max neighbors/atom: 2000, page size: 100000
  master list distance cutoff = 12
  ghost atom cutoff = 12
  binsize = 6, bins = 4 4 4
  3 neighbor lists, perpetual/occasional/extra = 3 0 0
  (1) pair lj/cut/coul/long, perpetual, skip from (3)
      attributes: half, newton on
      pair build: skip
      stencil: none
      bin: none
  (2) pair lj/cut/coul/long/soft, perpetual, skip from (3)
      attributes: half, newton on
      pair build: skip
      stencil: none
      bin: none
  (3) neighbor class addition, perpetual
      attributes: half, newton on
      pair build: half/bin/newton
      stencil: half/bin/3d/newton
      bin: standard
Setting up cg style minimization ...
  Unit style    : real
  Current step  : 0
Per MPI rank memory allocation (min/avg/max) = 10.15 | 10.15 | 10.16 Mbytes
Step Temp E_pair E_mol TotEng Press 
       0            0    -237.4358   0.56510211   -236.87069    17963.383 
      58            0   -6613.3412    337.81194   -6275.5293   -3203.4642 
Loop time of 0.216552 on 8 procs for 58 steps with 1503 atoms

98.7% CPU use with 8 MPI tasks x 1 OpenMP threads

Minimization stats:
  Stopping criterion = energy tolerance
  Energy initial, next-to-last, final = 
        -236.870693789     -6269.79609361     -6275.52930534
  Force two-norm initial, final = 680.83 107.168
  Force max component initial, final = 40.053 9.26344
  Final line search alpha, max atom move = 0.00526371 0.0487601
  Iterations, force evaluations = 58 98

MPI task timing breakdown:
Section |  min time  |  avg time  |  max time  |%varavg| %total
---------------------------------------------------------------
Pair    | 0.14419    | 0.14694    | 0.15368    |   0.7 | 67.85
Bond    | 0.00051725 | 0.00053567 | 0.0005566  |   0.0 |  0.25
Kspace  | 0.045425   | 0.052172   | 0.054988   |   1.2 | 24.09
Neigh   | 0.0043585  | 0.0043667  | 0.0043814  |   0.0 |  2.02
Comm    | 0.010059   | 0.010195   | 0.010291   |   0.1 |  4.71
Output  | 0          | 0          | 0          |   0.0 |  0.00
Modify  | 0          | 0          | 0          |   0.0 |  0.00
Other   |            | 0.002342   |            |       |  1.08

Nlocal:    187.875 ave 191 max 187 min
Histogram: 5 0 1 0 0 1 0 0 0 1
Nghost:    4884.75 ave 4902 max 4874 min
Histogram: 2 0 2 2 0 0 0 1 0 1
Neighs:    72767.9 ave 75041 max 71419 min
Histogram: 1 1 1 2 2 0 0 0 0 1

Total # of neighbors = 582143
Ave neighs/atom = 387.321
Ave special neighs/atom = 2
Neighbor list builds = 3
Dangerous builds = 0
Finding SHAKE clusters ...
  0 = # of size 2 clusters
  0 = # of size 3 clusters
  0 = # of size 4 clusters
  501 = # of frozen angles
  find clusters CPU = 0.000353344 secs
PPPM initialization ...
  using 12-bit tables for long-range coulomb (src/kspace.cpp:332)
  G vector (1/distance) = 0.315108
  grid = 24 24 24
  stencil order = 5
  estimated absolute RMS force accuracy = 0.0017115
  estimated relative force accuracy = 5.15414e-06
  using double precision MKL FFT
  3d grid and FFT values/proc = 6859 1728
Neighbor list info ...
  update every 1 steps, delay 10 steps, check yes
  max neighbors/atom: 2000, page size: 100000
  master list distance cutoff = 12
  ghost atom cutoff = 12
  binsize = 6, bins = 4 4 4
  3 neighbor lists, perpetual/occasional/extra = 3 0 0
  (1) pair lj/cut/coul/long, perpetual, skip from (3)
      attributes: half, newton on
      pair build: skip
      stencil: none
      bin: none
  (2) pair lj/cut/coul/long/soft, perpetual, skip from (3)
      attributes: half, newton on
      pair build: skip
      stencil: none
      bin: none
  (3) neighbor class addition, perpetual
      attributes: half, newton on
      pair build: half/bin/newton
      stencil: half/bin/3d/newton
      bin: standard
Setting up Verlet run ...
  Unit style    : real
  Current step  : 58
  Time step     : 1
Per MPI rank memory allocation (min/avg/max) = 9.904 | 9.905 | 9.906 Mbytes
Step Temp TotEng PotEng E_bond E_angle E_dihed E_coul E_long E_vdwl 
      58     300.000000   -5718.203984   -6613.341242       0.000000       0.000000       0.000000   23934.283204  -31807.270854    1259.646408 
   10000     306.052337   -4579.099438   -5492.295604       0.000000       0.000000       0.000000   25195.894090  -31802.070647    1113.880953 
   20000     296.594163   -4621.142229   -5506.117181       0.000000       0.000000       0.000000   25211.436466  -31798.944589    1081.390942 
   30000     292.690291   -4615.328124   -5488.654739       0.000000       0.000000       0.000000   25274.224428  -31801.533528    1038.654361 
   40000     306.406220   -4626.508656   -5540.760736       0.000000       0.000000       0.000000   25204.080128  -31802.720229    1057.879365 
   50000     293.501210   -4668.590510   -5544.336737       0.000000       0.000000       0.000000   25165.550264  -31799.008183    1089.121183 
   60000     298.508529   -4612.320844   -5503.007864       0.000000       0.000000       0.000000   25156.360612  -31799.935884    1140.567408 
   70000     279.336816   -4700.796709   -5534.279347       0.000000       0.000000       0.000000   25144.903813  -31801.096480    1121.913320 
   80000     290.338042   -4649.167244   -5515.475239       0.000000       0.000000       0.000000   25182.351487  -31801.828941    1104.002215 
   90000     298.237372   -4654.068020   -5543.945966       0.000000       0.000000       0.000000   25143.245146  -31802.038867    1114.847756 
  100000     307.433130   -4595.240413   -5512.556577       0.000000       0.000000       0.000000   25213.825820  -31798.902035    1072.519638 
  110000     294.175268   -4571.419363   -5449.176839       0.000000       0.000000       0.000000   25321.476931  -31799.958174    1029.304403 
  120000     287.652627   -4627.744910   -5486.040190       0.000000       0.000000       0.000000   25240.980533  -31799.702910    1072.682188 
  130000     297.194819   -4653.044581   -5539.811765       0.000000       0.000000       0.000000   25102.134887  -31796.982553    1155.035901 
  140000     301.205815   -4667.775428   -5566.510586       0.000000       0.000000       0.000000   25088.306860  -31796.545965    1141.728519 
  150000     297.643802   -4633.192981   -5521.299838       0.000000       0.000000       0.000000   25165.545944  -31798.751582    1111.905800 
  160000     301.169149   -4640.399583   -5539.025336       0.000000       0.000000       0.000000   25152.209045  -31801.630240    1110.395860 
  170000     301.599670   -4600.262058   -5500.172398       0.000000       0.000000       0.000000   25203.816658  -31802.344266    1098.355210 
  180000     291.920387   -4614.342812   -5485.372193       0.000000       0.000000       0.000000   25197.217229  -31802.415319    1119.825897 
  190000     288.052086   -4609.618490   -5469.105672       0.000000       0.000000       0.000000   25204.703157  -31797.911569    1124.102740 
  200000     291.591563   -4678.189273   -5548.237513       0.000000       0.000000       0.000000   25196.758867  -31798.766853    1053.770473 
  210000     299.071258   -4593.293213   -5485.659299       0.000000       0.000000       0.000000   25220.436999  -31792.369428    1086.273130 
  220000     300.452214   -4655.119510   -5551.606081       0.000000       0.000000       0.000000   25168.570893  -31798.905685    1078.728711 
  230000     299.817966   -4676.381144   -5570.975251       0.000000       0.000000       0.000000   25060.829261  -31796.747211    1164.942699 
  240000     275.213676   -4740.132109   -5561.312161       0.000000       0.000000       0.000000   25150.067411  -31800.804150    1089.424578 
  250000     303.887417   -4665.074922   -5571.811420       0.000000       0.000000       0.000000   25052.399963  -31795.493350    1171.281967 
  260000     296.002213   -4654.732233   -5537.940930       0.000000       0.000000       0.000000   25163.613416  -31798.687003    1097.132658 
  270000     293.552353   -4646.016048   -5521.914877       0.000000       0.000000       0.000000   25136.841976  -31797.871250    1139.114397 
  280000     297.402332   -4637.170078   -5524.556436       0.000000       0.000000       0.000000   25250.756802  -31796.875927    1021.562688 
  290000     298.946861   -4628.983324   -5520.978235       0.000000       0.000000       0.000000   25176.003182  -31796.617413    1099.635996 
  300000     304.189176   -4632.326685   -5539.963570       0.000000       0.000000       0.000000   25221.805105  -31800.787920    1039.019245 
  310000     298.754156   -4569.782134   -5461.202054       0.000000       0.000000       0.000000   25306.062350  -31799.761806    1032.497402 
  320000     293.655535   -4651.970265   -5528.176965       0.000000       0.000000       0.000000   25196.790764  -31801.572801    1076.605073 
  330000     297.546115   -4623.845029   -5511.660409       0.000000       0.000000       0.000000   25197.051531  -31797.134579    1088.422640 
  340000     304.904859   -4588.732747   -5498.505080       0.000000       0.000000       0.000000   25203.090495  -31803.757938    1102.162362 
  350000     311.657624   -4619.325821   -5549.246991       0.000000       0.000000       0.000000   25114.318633  -31797.555603    1133.989979 
  360000     308.619753   -4592.958289   -5513.815086       0.000000       0.000000       0.000000   25202.081326  -31798.379179    1082.482766 
  370000     299.839455   -4614.058105   -5508.716330       0.000000       0.000000       0.000000   25185.579540  -31798.341344    1104.045475 
  380000     305.010713   -4547.186785   -5457.274964       0.000000       0.000000       0.000000   25154.733807  -31794.089825    1182.081054 
  390000     294.679642   -4621.166804   -5500.429225       0.000000       0.000000       0.000000   25195.258669  -31799.018075    1103.330181 
  400000     299.575356   -4644.999184   -5538.869393       0.000000       0.000000       0.000000   25173.177564  -31799.686991    1087.640034 
  410000     285.500465   -4738.501930   -5590.375608       0.000000       0.000000       0.000000   25105.317342  -31801.682912    1105.989962 
  420000     293.360216   -4662.486881   -5537.812413       0.000000       0.000000       0.000000   25141.701820  -31799.265986    1119.751753 
  430000     292.771062   -4610.622749   -5484.190369       0.000000       0.000000       0.000000   25247.445193  -31797.451898    1065.816336 
  440000     297.410823   -4672.227505   -5559.639199       0.000000       0.000000       0.000000   25188.271557  -31799.402096    1051.491339 
  450000     313.779674   -4594.885453   -5531.138375       0.000000       0.000000       0.000000   25225.058831  -31799.955615    1043.758409 
  460000     300.708078   -4566.095987   -5463.346002       0.000000       0.000000       0.000000   25254.034541  -31799.197283    1081.816740 
  470000     300.114449   -4650.776367   -5546.255116       0.000000       0.000000       0.000000   25199.602704  -31798.946045    1053.088225 
  480000     293.151007   -4726.907379   -5601.608675       0.000000       0.000000       0.000000   25077.016325  -31805.524810    1126.899810 
  490000     301.766240   -4665.598146   -5566.005496       0.000000       0.000000       0.000000   25147.852075  -31798.824670    1084.967099 
  500000     299.262556   -4593.535128   -5486.472008       0.000000       0.000000       0.000000   25270.216509  -31799.144650    1042.456134 
  510000     293.572429   -4686.158126   -5562.116855       0.000000       0.000000       0.000000   25137.732453  -31798.155786    1098.306478 
  520000     299.752785   -4586.800964   -5481.200585       0.000000       0.000000       0.000000   25251.739480  -31801.084881    1068.144816 
  530000     297.569415   -4609.138938   -5497.023839       0.000000       0.000000       0.000000   25251.480059  -31801.371545    1052.867647 
  540000     295.975443   -4661.265899   -5544.394722       0.000000       0.000000       0.000000   25142.289138  -31799.891575    1113.207716 
  550000     286.015278   -4696.366024   -5549.775796       0.000000       0.000000       0.000000   25191.916154  -31801.524211    1059.832262 
  560000     295.094903   -4621.573788   -5502.075263       0.000000       0.000000       0.000000   25234.298850  -31800.052381    1063.678269 
  570000     301.498455   -4629.953886   -5529.562220       0.000000       0.000000       0.000000   25238.065874  -31799.937237    1032.309144 
  580000     303.384183   -4656.684460   -5561.919413       0.000000       0.000000       0.000000   25086.502658  -31797.321432    1148.899361 
  590000     307.053319   -4599.791697   -5515.974584       0.000000       0.000000       0.000000   25198.838242  -31800.259262    1085.446435 
  600000     308.940556   -4562.958178   -5484.772185       0.000000       0.000000       0.000000   25173.472193  -31800.953222    1142.708844 
  610000     311.503460   -4574.059861   -5503.521038       0.000000       0.000000       0.000000   25277.397427  -31801.672026    1020.753561 
  620000     309.652972   -4594.895981   -5518.835688       0.000000       0.000000       0.000000   25115.286311  -31799.378587    1165.256588 
  630000     318.021496   -4555.198796   -5504.108430       0.000000       0.000000       0.000000   25213.039868  -31798.905419    1081.757121 
  640000     293.295679   -4613.199123   -5488.332089       0.000000       0.000000       0.000000   25234.133355  -31793.997367    1071.531924 
  650000     297.239330   -4627.491130   -5514.391128       0.000000       0.000000       0.000000   25197.994874  -31798.041844    1085.655842 
  660000     289.095811   -4676.156257   -5538.757696       0.000000       0.000000       0.000000   25074.976543  -31796.319949    1182.585710 
  670000     298.206549   -4665.914423   -5555.700398       0.000000       0.000000       0.000000   25112.441124  -31797.590971    1129.449449 
  680000     310.152184   -4570.801141   -5496.230393       0.000000       0.000000       0.000000   25268.222648  -31800.186207    1035.733166 
  690000     301.840958   -4614.530218   -5515.160509       0.000000       0.000000       0.000000   25174.772940  -31798.057173    1108.123724 
  700000     294.440663   -4654.627391   -5533.176751       0.000000       0.000000       0.000000   25154.749340  -31799.794806    1111.868715 
  710000     302.577982   -4574.251312   -5477.080730       0.000000       0.000000       0.000000   25240.005375  -31796.837548    1079.751444 
  720000     301.825807   -4584.307286   -5484.892370       0.000000       0.000000       0.000000   25187.842602  -31795.964412    1123.229440 
  730000     302.609550   -4654.187844   -5557.111453       0.000000       0.000000       0.000000   25138.496340  -31799.054719    1103.446925 
  740000     295.081289   -4696.980305   -5577.441158       0.000000       0.000000       0.000000   25153.707585  -31799.669425    1068.520681 
  750000     299.346334   -4577.497416   -5470.684272       0.000000       0.000000       0.000000   25230.264108  -31793.549508    1092.601129 
  760000     312.264230   -4592.431386   -5524.162541       0.000000       0.000000       0.000000   25191.580795  -31802.097238    1086.353902 
  770000     297.703577   -4644.790993   -5533.076204       0.000000       0.000000       0.000000   25228.796950  -31797.843540    1035.970386 
  780000     297.848026   -4665.743508   -5554.459725       0.000000       0.000000       0.000000   25112.799437  -31800.121466    1132.862305 
  790000     301.710507   -4610.886959   -5511.128011       0.000000       0.000000       0.000000   25167.411279  -31795.324846    1116.785556 
  800000     304.320496   -4624.911380   -5532.940094       0.000000       0.000000       0.000000   25241.210784  -31798.995501    1024.844622 
  810000     292.382142   -4636.239012   -5508.646176       0.000000       0.000000       0.000000   25177.587795  -31800.989815    1114.755844 
  820000     281.690706   -4657.390234   -5497.896390       0.000000       0.000000       0.000000   25207.014928  -31799.397883    1094.486566 
  830000     310.700981   -4598.681948   -5525.748697       0.000000       0.000000       0.000000   25207.287650  -31800.139677    1067.103330 
  840000     297.249520   -4585.895080   -5472.825482       0.000000       0.000000       0.000000   25254.524018  -31798.819930    1071.470430 
  850000     304.982322   -4582.197555   -5492.201020       0.000000       0.000000       0.000000   25238.012849  -31794.318839    1064.104969 
  860000     308.313530   -4628.089151   -5548.032242       0.000000       0.000000       0.000000   25224.799838  -31797.774485    1024.942405 
  870000     291.502876   -4670.528606   -5540.312223       0.000000       0.000000       0.000000   25147.666329  -31799.771757    1111.793205 
  880000     301.925053   -4661.095498   -5561.976711       0.000000       0.000000       0.000000   25074.005857  -31800.676602    1164.694034 
  890000     298.123933   -4596.221313   -5485.760779       0.000000       0.000000       0.000000   25268.405624  -31797.011339    1042.844936 
  900000     283.058765   -4647.573483   -5492.161639       0.000000       0.000000       0.000000   25222.545558  -31801.089401    1086.382204 
  910000     298.849530   -4619.206134   -5510.910630       0.000000       0.000000       0.000000   25197.275949  -31797.917603    1089.731025 
  920000     288.025051   -4676.905105   -5536.311621       0.000000       0.000000       0.000000   25219.828509  -31798.146077    1042.005948 
  930000     284.890239   -4678.526202   -5528.579093       0.000000       0.000000       0.000000   25178.196701  -31798.697767    1091.921974 
  940000     292.043723   -4625.651820   -5497.049211       0.000000       0.000000       0.000000   25259.286545  -31795.993784    1039.658028 
  950000     296.749819   -4625.238521   -5510.677917       0.000000       0.000000       0.000000   25242.643461  -31799.875135    1046.553757 
  960000     300.860598   -4654.954849   -5552.659953       0.000000       0.000000       0.000000   25142.088131  -31802.478269    1107.730185 
  970000     304.115224   -4666.209619   -5573.625843       0.000000       0.000000       0.000000   25195.402512  -31799.862765    1030.834410 
  980000     303.405673   -4652.726241   -5558.025315       0.000000       0.000000       0.000000   25034.437192  -31795.947590    1203.485084 
  990000     309.343068   -4589.648251   -5512.663271       0.000000       0.000000       0.000000   25223.142046  -31800.291521    1064.486203 
 1000000     309.393915   -4624.829510   -5547.996245       0.000000       0.000000       0.000000   25193.076685  -31803.236903    1062.163973 
 1000058     311.878893   -4601.785942   -5532.367333       0.000000       0.000000       0.000000   25114.858385  -31801.783440    1154.557723 
Loop time of 1960.67 on 8 procs for 1000000 steps with 1503 atoms

Performance: 44.066 ns/day, 0.545 hours/ns, 510.028 timesteps/s
99.3% CPU use with 8 MPI tasks x 1 OpenMP threads

MPI task timing breakdown:
Section |  min time  |  avg time  |  max time  |%varavg| %total
---------------------------------------------------------------
Pair    | 976.97     | 982.91     | 993.98     |  15.1 | 50.13
Bond    | 0.27166    | 0.31637    | 0.43135    |   8.5 |  0.02
Kspace  | 519.4      | 531        | 536.44     |  21.2 | 27.08
Neigh   | 70.364     | 70.395     | 70.432     |   0.3 |  3.59
Comm    | 90.627     | 91.768     | 93.41      |   7.9 |  4.68
Output  | 0.0041841  | 0.0051271  | 0.011638   |   3.4 |  0.00
Modify  | 271.1      | 277.55     | 278.79     |  14.7 | 14.16
Other   |            | 6.736      |            |       |  0.34

Nlocal:    187.875 ave 201 max 178 min
Histogram: 3 0 1 0 0 1 0 1 0 2
Nghost:    4584 ave 4613 max 4552 min
Histogram: 1 1 0 1 1 1 0 1 1 1
Neighs:    67403.1 ave 72820 max 62961 min
Histogram: 2 0 2 0 1 1 0 0 0 2

Total # of neighbors = 539225
Ave neighs/atom = 358.766
Ave special neighs/atom = 2
Neighbor list builds = 43398
Dangerous builds = 0
PPPM initialization ...
  using 12-bit tables for long-range coulomb (src/kspace.cpp:332)
  G vector (1/distance) = 0.313037
  grid = 24 24 24
  stencil order = 5
  estimated absolute RMS force accuracy = 0.0018662
  estimated relative force accuracy = 5.62e-06
  using double precision MKL FFT
  3d grid and FFT values/proc = 6859 1728
Neighbor list info ...
  update every 1 steps, delay 10 steps, check yes
  max neighbors/atom: 2000, page size: 100000
  master list distance cutoff = 12
  ghost atom cutoff = 12
  binsize = 6, bins = 5 5 5
  3 neighbor lists, perpetual/occasional/extra = 3 0 0
  (1) pair lj/cut/coul/long, perpetual, skip from (3)
      attributes: half, newton on
      pair build: skip
      stencil: none
      bin: none
  (2) pair lj/cut/coul/long/soft, perpetual, skip from (3)
      attributes: half, newton on
      pair build: skip
      stencil: none
      bin: none
  (3) neighbor class addition, perpetual
      attributes: half, newton on
      pair build: half/bin/newton
      stencil: half/bin/3d/newton
      bin: standard
Setting up Verlet run ...
  Unit style    : real
  Current step  : 0
  Time step     : 1
Per MPI rank memory allocation (min/avg/max) = 10.91 | 10.91 | 10.91 Mbytes
Step Temp TotEng PotEng E_bond E_angle E_dihed E_coul E_long E_vdwl 
       0     311.878893   -4601.788316   -5532.369707       0.000000       0.000000       0.000000   24906.318435  -31593.245864    1154.557723 
   10000     296.090827   -4626.820689   -5510.293793       0.000000       0.000000       0.000000   24971.223558  -31591.224058    1109.706706 
   20000     302.470149   -4591.015590   -5493.523255       0.000000       0.000000       0.000000   24990.710329  -31589.593639    1105.360055 
   30000     301.340191   -4625.777257   -5524.913365       0.000000       0.000000       0.000000   24970.589490  -31588.871153    1093.368298 
   40000     300.843834   -4606.033996   -5503.689078       0.000000       0.000000       0.000000   25044.417578  -31589.820193    1041.713537 
   50000     295.571454   -4639.299133   -5521.222537       0.000000       0.000000       0.000000   24979.931873  -31590.734805    1089.580396 
   60000     305.403740   -4573.201019   -5484.461908       0.000000       0.000000       0.000000   25016.052124  -31584.849603    1084.335571 
   70000     311.129588   -4585.109520   -5513.455142       0.000000       0.000000       0.000000   25015.270667  -31590.448548    1061.722739 
   80000     290.225981   -4671.502849   -5537.476479       0.000000       0.000000       0.000000   25016.714927  -31594.373050    1040.181644 
   90000     307.992281   -4667.025999   -5586.010553       0.000000       0.000000       0.000000   24867.789258  -31593.573687    1139.773876 
  100000     302.795622   -4639.023629   -5542.502439       0.000000       0.000000       0.000000   24945.380226  -31591.965960    1104.083295 
  110000     297.771376   -4660.971709   -5549.459219       0.000000       0.000000       0.000000   24958.173894  -31591.985149    1084.352037 
  120000     295.265130   -4623.253897   -5504.263293       0.000000       0.000000       0.000000   24986.915293  -31593.150758    1101.972172 
  130000     309.493161   -4620.333016   -5543.795881       0.000000       0.000000       0.000000   24948.440228  -31592.660022    1100.423913 
  140000     283.275715   -4690.621591   -5535.857080       0.000000       0.000000       0.000000   24897.851025  -31591.675870    1157.967765 
  150000     302.622307   -4586.163058   -5489.124733       0.000000       0.000000       0.000000   25017.668873  -31589.853387    1083.059781 
  160000     298.152703   -4662.072483   -5551.697795       0.000000       0.000000       0.000000   24920.221805  -31588.949826    1117.030226 
  170000     303.438578   -4639.019764   -5544.417020       0.000000       0.000000       0.000000   24944.213836  -31591.247124    1102.616268 
  180000     296.126659   -4605.291790   -5488.871808       0.000000       0.000000       0.000000   25046.991128  -31592.848753    1056.985816 
  190000     294.070541   -4666.628216   -5544.073209       0.000000       0.000000       0.000000   24971.787981  -31591.120345    1075.259155 
  200000     287.320117   -4676.930935   -5534.234074       0.000000       0.000000       0.000000   24990.157791  -31591.791053    1067.399187 
  210000     294.551732   -4674.621110   -5553.501876       0.000000       0.000000       0.000000   24942.603113  -31594.025636    1097.920648 
  220000     306.336303   -4678.429709   -5592.473171       0.000000       0.000000       0.000000   24874.822570  -31590.770827    1123.475086 
  230000     295.703673   -4640.465333   -5522.783248       0.000000       0.000000       0.000000   24963.242107  -31591.279433    1105.254079 
  240000     305.554636   -4649.024271   -5560.735401       0.000000       0.000000       0.000000   24952.106035  -31590.799498    1077.958062 
  250000     288.118728   -4673.599413   -5533.285440       0.000000       0.000000       0.000000   24981.485659  -31591.604453    1076.833353 
  260000     295.429097   -4643.524201   -5525.022840       0.000000       0.000000       0.000000   24931.137021  -31587.600253    1131.440392 
  270000     297.241911   -4660.311827   -5547.219524       0.000000       0.000000       0.000000   24933.638903  -31595.744806    1114.886378 
  280000     295.810435   -4652.875913   -5535.512386       0.000000       0.000000       0.000000   24875.919350  -31592.789886    1181.358150 
  290000     303.650563   -4664.249649   -5570.279423       0.000000       0.000000       0.000000   24854.972495  -31591.684553    1166.432635 
  300000     302.595740   -4623.456729   -5526.339133       0.000000       0.000000       0.000000   24991.470926  -31591.261873    1073.451814 
  310000     297.966102   -4651.190594   -5540.259127       0.000000       0.000000       0.000000   24924.879842  -31592.602220    1127.463252 
  320000     311.348722   -4580.730955   -5509.730427       0.000000       0.000000       0.000000   25009.326819  -31594.230615    1075.173369 
  330000     294.703507   -4737.980108   -5617.313739       0.000000       0.000000       0.000000   24807.872165  -31591.143293    1165.957390 
  340000     299.374839   -4651.136168   -5544.408078       0.000000       0.000000       0.000000   24929.714296  -31592.253383    1118.131010 
  350000     306.767583   -4609.751951   -5525.082262       0.000000       0.000000       0.000000   24981.886146  -31589.023434    1082.055026 
  360000     293.977825   -4644.536581   -5521.704928       0.000000       0.000000       0.000000   24959.876510  -31592.497449    1110.916011 
  370000     292.773576   -4626.046798   -5499.621918       0.000000       0.000000       0.000000   25051.275375  -31586.108199    1035.210906 
  380000     303.243135   -4637.755351   -5542.569445       0.000000       0.000000       0.000000   24946.484860  -31588.684863    1099.630558 
  390000     293.947948   -4639.279840   -5516.359040       0.000000       0.000000       0.000000   24976.321005  -31592.075884    1099.395839 
  400000     295.264043   -4571.248840   -5452.254994       0.000000       0.000000       0.000000   25137.367570  -31585.953321     996.330757 
  410000     286.205115   -4605.662728   -5459.638934       0.000000       0.000000       0.000000   25029.376412  -31586.321659    1097.306313 
  420000     302.301437   -4633.208853   -5535.213118       0.000000       0.000000       0.000000   25036.723324  -31589.783999    1017.847557 
  430000     307.237053   -4596.132110   -5512.863221       0.000000       0.000000       0.000000   24980.243069  -31589.308539    1096.202250 
  440000     306.368177   -4583.588154   -5497.726721       0.000000       0.000000       0.000000   24995.214759  -31589.038330    1096.096850 
  450000     308.187690   -4579.378964   -5498.946577       0.000000       0.000000       0.000000   25039.040907  -31589.626471    1051.638986 
  460000     297.332063   -4638.974242   -5526.150934       0.000000       0.000000       0.000000   25035.500486  -31590.874684    1029.223264 
  470000     299.119677   -4607.070314   -5499.580873       0.000000       0.000000       0.000000   24973.485661  -31597.117755    1124.051221 
  480000     300.001872   -4622.336647   -5517.479490       0.000000       0.000000       0.000000   24969.786961  -31589.307014    1102.040564 
  490000     301.043694   -4606.257003   -5504.508425       0.000000       0.000000       0.000000   24998.340212  -31590.315315    1087.466678 
  500000     303.676847   -4635.324219   -5541.432420       0.000000       0.000000       0.000000   24982.123413  -31591.626830    1068.070997 
  510000     298.025883   -4620.426324   -5509.673229       0.000000       0.000000       0.000000   25004.630047  -31589.761193    1075.457916 
  520000     305.969251   -4629.179177   -5542.127432       0.000000       0.000000       0.000000   24962.211643  -31593.348189    1089.009114 
  530000     286.267018   -4667.148681   -5521.309594       0.000000       0.000000       0.000000   25026.008335  -31591.636280    1044.318351 
  540000     309.571764   -4578.723284   -5502.420683       0.000000       0.000000       0.000000   24970.712122  -31592.517697    1119.384892 
  550000     310.520156   -4594.422436   -5520.949639       0.000000       0.000000       0.000000   24974.899172  -31592.305107    1096.456296 
  560000     302.030526   -4676.522047   -5577.717968       0.000000       0.000000       0.000000   24945.835086  -31597.609289    1074.056234 
  570000     295.116506   -4583.821876   -5464.387809       0.000000       0.000000       0.000000   25051.147811  -31592.401980    1076.866360 
  580000     303.374542   -4692.598090   -5597.804274       0.000000       0.000000       0.000000   24834.798742  -31593.061538    1160.458522 
  590000     314.513153   -4592.871860   -5531.313331       0.000000       0.000000       0.000000   24984.268510  -31591.215325    1075.633484 
  600000     294.482721   -4596.337705   -5475.012556       0.000000       0.000000       0.000000   25120.557250  -31590.596696     995.026889 
  610000     304.974200   -4653.331551   -5563.310782       0.000000       0.000000       0.000000   24901.967773  -31590.884615    1125.606061 
  620000     289.154808   -4681.493413   -5544.270887       0.000000       0.000000       0.000000   24949.010624  -31590.728641    1097.447129 
  630000     303.917471   -4623.182797   -5530.008969       0.000000       0.000000       0.000000   24919.074906  -31593.196498    1144.112622 
  640000     290.492149   -4701.984709   -5568.752527       0.000000       0.000000       0.000000   24871.448896  -31590.408001    1150.206578 
  650000     299.592416   -4594.262844   -5488.183957       0.000000       0.000000       0.000000   25007.142435  -31594.211265    1098.884872 
  660000     305.440408   -4616.669969   -5528.040265       0.000000       0.000000       0.000000   24973.381810  -31591.046589    1089.624514 
  670000     284.848976   -4685.664311   -5535.594084       0.000000       0.000000       0.000000   25006.355317  -31594.473053    1052.523652 
  680000     294.707348   -4669.401598   -5548.746691       0.000000       0.000000       0.000000   24973.576123  -31592.999776    1070.676962 
  690000     301.704879   -4592.103500   -5492.327760       0.000000       0.000000       0.000000   25104.777884  -31591.546859     994.441215 
  700000     299.785437   -4598.910469   -5493.407516       0.000000       0.000000       0.000000   24964.041956  -31585.560384    1128.110912 
  710000     293.205015   -4615.856164   -5490.718609       0.000000       0.000000       0.000000   24991.659273  -31591.633728    1109.255846 
  720000     293.769417   -4673.955834   -5550.502334       0.000000       0.000000       0.000000   24876.649708  -31592.946381    1165.794339 
  730000     303.338125   -4659.467848   -5564.565372       0.000000       0.000000       0.000000   24917.611397  -31590.266940    1108.090170 
  740000     292.185591   -4640.396321   -5512.217018       0.000000       0.000000       0.000000   25029.086817  -31593.141962    1051.838127 
  750000     303.342391   -4607.963165   -5513.073419       0.000000       0.000000       0.000000   25070.519105  -31592.891215    1009.298691 
  760000     296.902238   -4621.725148   -5507.619331       0.000000       0.000000       0.000000   24934.441166  -31589.864158    1147.803660 
  770000     294.829452   -4649.497338   -5529.206763       0.000000       0.000000       0.000000   24959.300285  -31592.824167    1104.317119 
  780000     309.788217   -4614.466555   -5538.809806       0.000000       0.000000       0.000000   24943.392686  -31589.776858    1107.574366 
  790000     298.848702   -4691.674423   -5583.376449       0.000000       0.000000       0.000000   24965.101982  -31595.648262    1047.169830 
  800000     301.398452   -4633.307784   -5532.617731       0.000000       0.000000       0.000000   24921.439434  -31591.583972    1137.526807 
  810000     319.880889   -4612.506641   -5566.964313       0.000000       0.000000       0.000000   24894.032533  -31593.247382    1132.250536 
  820000     286.770591   -4665.068077   -5520.731546       0.000000       0.000000       0.000000   25009.278926  -31589.342228    1059.331756 
  830000     297.027207   -4657.870851   -5544.137918       0.000000       0.000000       0.000000   24993.790779  -31591.857336    1053.928639 
  840000     296.617524   -4609.645419   -5494.690075       0.000000       0.000000       0.000000   25020.854561  -31594.310656    1078.766020 
  850000     312.419771   -4661.224797   -5593.420053       0.000000       0.000000       0.000000   24826.298143  -31589.371225    1169.653029 
  860000     297.428516   -4636.458594   -5523.923082       0.000000       0.000000       0.000000   25004.897755  -31593.306089    1064.485253 
  870000     302.922543   -4597.196550   -5501.054066       0.000000       0.000000       0.000000   24965.978310  -31588.353247    1121.320872 
  880000     302.923822   -4606.704275   -5510.565605       0.000000       0.000000       0.000000   25027.956113  -31590.977421    1052.455704 
  890000     299.407276   -4704.669657   -5598.038349       0.000000       0.000000       0.000000   24827.957887  -31589.702237    1163.706001 
  900000     287.109766   -4714.601951   -5571.277447       0.000000       0.000000       0.000000   24885.293907  -31587.515716    1130.944363 
  910000     308.565728   -4551.947366   -5472.642964       0.000000       0.000000       0.000000   25005.568347  -31588.187638    1109.976327 
  920000     301.649312   -4637.846584   -5537.905045       0.000000       0.000000       0.000000   25046.493338  -31591.369555    1006.971172 
  930000     289.757219   -4621.679902   -5486.254843       0.000000       0.000000       0.000000   25017.653487  -31583.174305    1079.265975 
  940000     295.772222   -4705.090872   -5587.613325       0.000000       0.000000       0.000000   24905.502870  -31597.227467    1104.111272 
  950000     297.556311   -4599.638472   -5487.484274       0.000000       0.000000       0.000000   25010.437218  -31591.215381    1093.293889 
  960000     303.990526   -4664.534727   -5571.578878       0.000000       0.000000       0.000000   24940.277936  -31595.287854    1083.431040 
  970000     307.059479   -4643.087103   -5559.288369       0.000000       0.000000       0.000000   24839.314670  -31592.810201    1194.207162 
  980000     308.603312   -4592.356604   -5513.164345       0.000000       0.000000       0.000000   24963.614033  -31591.089585    1114.311206 
  990000     296.431972   -4646.689228   -5531.180238       0.000000       0.000000       0.000000   24918.390298  -31593.279807    1143.709270 
 1000000     312.247342   -4576.070902   -5507.751666       0.000000       0.000000       0.000000   24957.577428  -31592.419410    1127.090316 
 1010000     285.160477   -4764.799166   -5615.658390       0.000000       0.000000       0.000000   24833.932185  -31590.636522    1141.045947 
 1020000     291.074633   -4667.649170   -5536.154998       0.000000       0.000000       0.000000   24988.414022  -31592.012620    1067.443600 
 1030000     292.767436   -4633.632486   -5507.189286       0.000000       0.000000       0.000000   25019.088106  -31591.531087    1065.253695 
 1040000     306.429947   -4600.819094   -5515.141970       0.000000       0.000000       0.000000   25004.773250  -31588.393625    1068.478404 
 1050000     301.971317   -4674.888247   -5575.907502       0.000000       0.000000       0.000000   24920.258017  -31593.818991    1097.653473 
 1060000     294.870249   -4629.269777   -5509.100931       0.000000       0.000000       0.000000   25020.230957  -31589.795196    1060.463307 
 1070000     293.782762   -4613.347625   -5489.933944       0.000000       0.000000       0.000000   25035.823183  -31593.481205    1067.724078 
 1080000     295.609831   -4634.254131   -5516.292044       0.000000       0.000000       0.000000   25032.501689  -31587.969885    1039.176151 
 1090000     296.647767   -4590.116999   -5475.251895       0.000000       0.000000       0.000000   25076.213066  -31585.657609    1034.192648 
 1100000     292.088923   -4707.511025   -5579.043284       0.000000       0.000000       0.000000   24890.702504  -31590.933555    1121.187767 
 1110000     295.437325   -4596.953269   -5478.476459       0.000000       0.000000       0.000000   25068.923554  -31592.854042    1045.454029 
 1120000     298.575440   -4629.448989   -5520.335657       0.000000       0.000000       0.000000   24973.174282  -31586.675596    1093.165657 
 1130000     318.335578   -4570.720755   -5520.567543       0.000000       0.000000       0.000000   24966.068247  -31592.930417    1106.294628 
 1140000     295.107159   -4736.193179   -5616.731223       0.000000       0.000000       0.000000   24860.544334  -31592.752629    1115.477072 
 1150000     304.183968   -4630.378072   -5537.999416       0.000000       0.000000       0.000000   25075.676446  -31593.083481     979.407620 
 1160000     298.015064   -4633.324875   -5522.539500       0.000000       0.000000       0.000000   24910.768733  -31589.560143    1156.251910 
 1170000     298.918699   -4585.421337   -5477.332220       0.000000       0.000000       0.000000   25020.096673  -31591.868844    1094.439951 
 1180000     288.157547   -4664.860404   -5524.662260       0.000000       0.000000       0.000000   24988.641469  -31591.203519    1077.899791 
 1190000     301.216205   -4612.458654   -5511.224815       0.000000       0.000000       0.000000   25077.625947  -31594.606396    1005.755634 
 1200000     296.642453   -4617.112884   -5502.231925       0.000000       0.000000       0.000000   24950.546039  -31589.819728    1137.041764 
 1210000     296.205165   -4675.197758   -5559.012022       0.000000       0.000000       0.000000   24872.184483  -31589.901926    1158.705421 
 1220000     295.096401   -4627.174579   -5507.680523       0.000000       0.000000       0.000000   25023.289091  -31591.222602    1060.252988 
 1230000     300.928615   -4643.295178   -5541.203230       0.000000       0.000000       0.000000   24983.577951  -31591.003595    1066.222414 
 1240000     307.895442   -4606.216436   -5524.912043       0.000000       0.000000       0.000000   25008.591456  -31592.850731    1059.347233 
 1250000     303.548518   -4558.714851   -5464.440144       0.000000       0.000000       0.000000   25068.175550  -31588.762186    1056.146492 
 1260000     305.935939   -4636.943865   -5549.792724       0.000000       0.000000       0.000000   24948.719844  -31594.114798    1095.602230 
 1270000     301.205637   -4600.443642   -5499.178269       0.000000       0.000000       0.000000   25002.260783  -31588.913338    1087.474287 
 1280000     292.486219   -4639.845129   -5512.562836       0.000000       0.000000       0.000000   24992.786121  -31590.463498    1085.114540 
 1290000     305.184458   -4635.690440   -5546.297037       0.000000       0.000000       0.000000   24926.062914  -31592.831125    1120.471174 
 1300000     296.193581   -4594.050672   -5477.830371       0.000000       0.000000       0.000000   25036.967603  -31590.595193    1075.797219 
 1310000     302.673192   -4574.441671   -5477.555174       0.000000       0.000000       0.000000   25082.907802  -31587.818981    1027.356005 
 1320000     307.653936   -4595.824272   -5513.799274       0.000000       0.000000       0.000000   24957.223326  -31591.107899    1120.085298 
 1330000     292.014820   -4682.866599   -5554.177749       0.000000       0.000000       0.000000   24993.893804  -31592.414681    1044.343129 
 1340000     297.702807   -4655.339404   -5543.622318       0.000000       0.000000       0.000000   24918.565948  -31586.171298    1123.983032 
 1350000     297.170463   -4652.780414   -5539.474926       0.000000       0.000000       0.000000   24961.645597  -31590.815871    1089.695349 
 1360000     296.081710   -4669.881346   -5553.327246       0.000000       0.000000       0.000000   24956.614740  -31595.435349    1085.493363 
 1370000     298.761408   -4688.470289   -5579.911846       0.000000       0.000000       0.000000   24841.579116  -31588.401928    1166.910966 
 1380000     294.964251   -4628.972087   -5509.083724       0.000000       0.000000       0.000000   24989.880682  -31593.410025    1094.445619 
 1390000     295.157969   -4617.336890   -5498.026541       0.000000       0.000000       0.000000   24978.553406  -31594.155215    1117.575267 
 1400000     299.358696   -4679.458129   -5572.681871       0.000000       0.000000       0.000000   24902.394354  -31593.479575    1118.403351 
 1410000     306.277045   -4569.348442   -5483.215089       0.000000       0.000000       0.000000   25071.814668  -31585.709952    1030.680195 
 1420000     307.512720   -4593.448068   -5511.001713       0.000000       0.000000       0.000000   24950.705655  -31589.067864    1127.360496 
 1430000     288.658473   -4648.050418   -5509.346932       0.000000       0.000000       0.000000   25053.887577  -31593.034271    1029.799762 
 1440000     301.989733   -4521.384832   -5422.459038       0.000000       0.000000       0.000000   25136.180470  -31590.055163    1031.415655 
 1450000     296.149020   -4595.214820   -5478.861559       0.000000       0.000000       0.000000   25084.422068  -31586.681176    1023.397549 
 1460000     295.405194   -4610.944195   -5492.371512       0.000000       0.000000       0.000000   24972.759878  -31589.896614    1124.765224 
 1470000     301.036538   -4595.633533   -5493.863602       0.000000       0.000000       0.000000   25026.491380  -31591.140510    1070.785529 
 1480000     315.181836   -4596.970217   -5537.406898       0.000000       0.000000       0.000000   24955.198579  -31592.765194    1100.159716 
 1490000     312.995413   -4580.395998   -5514.308852       0.000000       0.000000       0.000000   24964.748029  -31589.184877    1110.127997 
 1500000     296.903281   -4627.571504   -5513.468801       0.000000       0.000000       0.000000   24908.314277  -31591.255245    1169.472167 
 1510000     294.492034   -4619.700039   -5498.402677       0.000000       0.000000       0.000000   25015.222500  -31589.598631    1075.973454 
 1520000     303.763859   -4604.110511   -5510.478337       0.000000       0.000000       0.000000   24973.865721  -31592.836800    1108.492741 
 1530000     297.750509   -4639.475718   -5527.900965       0.000000       0.000000       0.000000   24939.086220  -31592.269795    1125.282610 
 1540000     287.480409   -4727.709266   -5585.490685       0.000000       0.000000       0.000000   24894.808779  -31591.002350    1110.702886 
 1550000     290.535930   -4684.019777   -5550.918230       0.000000       0.000000       0.000000   24916.511416  -31588.345480    1120.915834 
 1560000     286.995792   -4682.445404   -5538.780826       0.000000       0.000000       0.000000   24986.244931  -31590.156399    1065.130643 
 1570000     298.089546   -4704.903180   -5594.340043       0.000000       0.000000       0.000000   24896.708217  -31592.693747    1101.645487 
 1580000     298.277127   -4565.092315   -5455.088881       0.000000       0.000000       0.000000   25061.286783  -31588.866746    1072.491082 
 1590000     286.817505   -4681.413707   -5537.217158       0.000000       0.000000       0.000000   24983.219279  -31596.064925    1075.628488 
 1600000     282.765941   -4636.365396   -5480.079827       0.000000       0.000000       0.000000   25000.116254  -31589.759115    1109.563034 
 1610000     298.984791   -4542.370855   -5434.478940       0.000000       0.000000       0.000000   25078.536273  -31592.379947    1079.364734 
 1620000     306.807006   -4583.210960   -5498.658898       0.000000       0.000000       0.000000   24987.460669  -31591.054941    1104.935373 
 1630000     303.468240   -4620.774374   -5526.260134       0.000000       0.000000       0.000000   24959.237358  -31591.460756    1105.963264 
 1640000     294.654840   -4639.086222   -5518.274640       0.000000       0.000000       0.000000   25014.380703  -31591.363933    1058.708590 
 1650000     297.719113   -4578.514536   -5466.846102       0.000000       0.000000       0.000000   24994.347637  -31584.452057    1123.258318 
 1660000     302.318134   -4635.510624   -5537.564709       0.000000       0.000000       0.000000   24961.990828  -31587.402857    1087.847321 
 1670000     284.902485   -4685.494007   -5535.583437       0.000000       0.000000       0.000000   24988.417354  -31592.474940    1068.474149 
 1680000     313.736739   -4588.135068   -5524.259883       0.000000       0.000000       0.000000   24995.380464  -31592.197701    1072.557354 
 1690000     300.488553   -4643.158748   -5539.753744       0.000000       0.000000       0.000000   24870.940597  -31593.529823    1182.835482 
 1700000     296.082404   -4603.380624   -5486.828596       0.000000       0.000000       0.000000   25030.559611  -31593.349113    1075.960906 
 1710000     304.023246   -4597.271942   -5504.413724       0.000000       0.000000       0.000000   25025.681489  -31594.629418    1064.534204 
 1720000     300.594004   -4619.930419   -5516.840061       0.000000       0.000000       0.000000   24999.329235  -31590.325040    1074.155744 
 1730000     277.301800   -4732.290084   -5559.700660       0.000000       0.000000       0.000000   24942.935501  -31591.719043    1089.082881 
 1740000     310.511760   -4589.123258   -5515.625410       0.000000       0.000000       0.000000   24933.229360  -31588.144486    1139.289716 
 1750000     298.800578   -4615.346224   -5506.904657       0.000000       0.000000       0.000000   25026.200340  -31593.704940    1060.599943 
 1760000     288.672467   -4665.142768   -5526.481036       0.000000       0.000000       0.000000   24956.005226  -31587.393921    1104.907659 
 1770000     306.336036   -4581.097139   -5495.139803       0.000000       0.000000       0.000000   25029.333763  -31589.310592    1064.837026 
 1780000     311.097210   -4624.344259   -5552.593271       0.000000       0.000000       0.000000   24999.955747  -31588.015051    1035.466033 
 1790000     291.465641   -4639.487668   -5509.160184       0.000000       0.000000       0.000000   25000.892961  -31589.755709    1079.702564 
 1800000     298.093288   -4643.098406   -5532.546433       0.000000       0.000000       0.000000   24905.031351  -31589.914148    1152.336364 
 1810000     299.238939   -4634.771676   -5527.638088       0.000000       0.000000       0.000000   25011.544267  -31592.666744    1053.484389 
 1820000     301.102827   -4601.019122   -5499.446985       0.000000       0.000000       0.000000   24935.778411  -31589.436365    1154.210969 
 1830000     304.725974   -4630.559065   -5539.797641       0.000000       0.000000       0.000000   24959.593664  -31591.310181    1091.918876 
 1840000     293.222280   -4627.853101   -5502.767060       0.000000       0.000000       0.000000   25068.243188  -31593.859785    1022.849538 
 1850000     306.034400   -4607.057302   -5520.199947       0.000000       0.000000       0.000000   24971.229262  -31593.970139    1102.540930 
 1860000     299.958420   -4717.371512   -5612.384703       0.000000       0.000000       0.000000   24837.696898  -31589.776917    1139.695317 
 1870000     292.034992   -4648.904228   -5520.275568       0.000000       0.000000       0.000000   24961.301738  -31590.097438    1108.520132 
 1880000     314.331163   -4639.733316   -5577.631768       0.000000       0.000000       0.000000   24891.414441  -31593.777569    1124.731360 
 1890000     306.193859   -4601.607647   -5515.226085       0.000000       0.000000       0.000000   24946.484786  -31589.666379    1127.955508 
 1900000     306.831264   -4627.930166   -5543.450488       0.000000       0.000000       0.000000   24922.666440  -31588.647868    1122.530940 
 1910000     296.200800   -4643.942043   -5527.743283       0.000000       0.000000       0.000000   25003.697329  -31589.699801    1058.259189 
 1920000     290.293504   -4651.327156   -5517.502260       0.000000       0.000000       0.000000   24981.006355  -31589.327881    1090.819265 
 1930000     308.778712   -4625.232138   -5546.563236       0.000000       0.000000       0.000000   24961.870120  -31590.568416    1082.135060 
 1940000     301.209362   -4612.063986   -5510.809727       0.000000       0.000000       0.000000   25029.979128  -31590.066648    1049.277793 
 1950000     307.694318   -4677.234795   -5595.330288       0.000000       0.000000       0.000000   24790.722659  -31594.253247    1208.200300 
 1960000     304.667329   -4693.263297   -5602.326889       0.000000       0.000000       0.000000   24808.888372  -31592.718826    1181.503566 
 1970000     308.863708   -4616.891762   -5538.476471       0.000000       0.000000       0.000000   24929.028588  -31588.995551    1121.490492 
 1980000     307.607051   -4637.465426   -5555.300532       0.000000       0.000000       0.000000   24960.104697  -31586.362200    1070.956971 
 1990000     299.625461   -4685.300637   -5579.320350       0.000000       0.000000       0.000000   24869.377428  -31593.983201    1145.285422 
 2000000     313.753182   -4555.579131   -5491.753007       0.000000       0.000000       0.000000   24947.391915  -31587.661288    1148.516367 
 2010000     283.672424   -4720.082686   -5566.501874       0.000000       0.000000       0.000000   24882.944069  -31591.458681    1142.012738 
 2020000     291.072641   -4648.721122   -5517.221008       0.000000       0.000000       0.000000   24953.715880  -31586.728755    1115.791866 
 2030000     302.565668   -4622.618631   -5525.411305       0.000000       0.000000       0.000000   25019.258302  -31592.986253    1048.316646 
 2040000     311.713525   -4580.977323   -5511.065289       0.000000       0.000000       0.000000   25045.906951  -31590.138376    1033.166136 
 2050000     296.259807   -4647.671595   -5531.648899       0.000000       0.000000       0.000000   24933.953718  -31593.251201    1127.648583 
 2060000     295.184361   -4663.060021   -5543.828420       0.000000       0.000000       0.000000   24915.233221  -31587.528164    1128.466522 
 2070000     293.198632   -4628.856698   -5503.700098       0.000000       0.000000       0.000000   25025.534145  -31590.654051    1061.419808 
 2080000     302.702876   -4667.873122   -5571.075196       0.000000       0.000000       0.000000   24954.044176  -31595.509636    1070.390264 
 2090000     303.653056   -4634.478137   -5540.515350       0.000000       0.000000       0.000000   24935.625801  -31593.413184    1117.272034 
 2100000     303.100453   -4598.053139   -5502.441501       0.000000       0.000000       0.000000   25042.715371  -31590.653528    1045.496656 
 2110000     288.945483   -4696.604375   -5558.757266       0.000000       0.000000       0.000000   24956.770388  -31596.624814    1081.097160 
 2120000     296.365876   -4647.525582   -5531.819375       0.000000       0.000000       0.000000   24976.760214  -31592.108613    1083.529024 
 2130000     305.031345   -4609.244583   -5519.394323       0.000000       0.000000       0.000000   25009.904778  -31591.714133    1062.415032 
 2140000     304.644004   -4633.946234   -5542.940228       0.000000       0.000000       0.000000   24891.661516  -31590.369514    1155.767770 
 2150000     286.638906   -4628.138921   -5483.409468       0.000000       0.000000       0.000000   25018.425261  -31591.643362    1089.808633 
 2160000     295.878255   -4641.491321   -5524.330156       0.000000       0.000000       0.000000   25064.171623  -31592.211212    1003.709434 
 2170000     296.796432   -4590.146335   -5475.724815       0.000000       0.000000       0.000000   25054.766749  -31587.563415    1057.071851 
 2180000     310.219313   -4543.860258   -5469.489807       0.000000       0.000000       0.000000   25082.009876  -31589.981656    1038.481973 
 2190000     294.188304   -4635.146747   -5512.943120       0.000000       0.000000       0.000000   24963.217665  -31593.014236    1116.853451 
 2200000     300.457901   -4693.461434   -5589.964972       0.000000       0.000000       0.000000   24898.879120  -31587.847351    1099.003259 
 2210000     289.062250   -4649.034289   -5511.535589       0.000000       0.000000       0.000000   25029.574914  -31591.679587    1050.569084 
 2220000     299.610692   -4570.546468   -5464.522113       0.000000       0.000000       0.000000   25065.699990  -31591.515828    1061.293725 
 2230000     306.017229   -4659.964846   -5573.056257       0.000000       0.000000       0.000000   24883.805423  -31592.034434    1135.172754 
 2240000     302.191652   -4642.701804   -5544.378494       0.000000       0.000000       0.000000   25005.291746  -31588.050697    1038.380457 
 2250000     289.392272   -4692.917188   -5556.403204       0.000000       0.000000       0.000000   24855.369497  -31591.849118    1180.076417 
 2260000     288.288099   -4702.805654   -5562.997051       0.000000       0.000000       0.000000   24874.611415  -31594.250017    1156.641551 
 2270000     303.614185   -4572.900113   -5478.821343       0.000000       0.000000       0.000000   25065.741146  -31591.553332    1046.990843 
 2280000     289.701236   -4703.319961   -5567.727862       0.000000       0.000000       0.000000   24827.989221  -31592.072233    1196.355149 
 2290000     309.888747   -4589.736506   -5514.379716       0.000000       0.000000       0.000000   25045.823775  -31589.866076    1029.662585 
 2300000     305.151797   -4678.514138   -5589.023282       0.000000       0.000000       0.000000   24946.645596  -31593.193580    1057.524702 
 2310000     301.523041   -4644.792508   -5544.474203       0.000000       0.000000       0.000000   24968.537473  -31589.500873    1076.489198 
 2320000     299.440808   -4574.049033   -5467.517779       0.000000       0.000000       0.000000   25073.857425  -31590.813558    1049.438355 
 2330000     299.758522   -4609.836531   -5504.253269       0.000000       0.000000       0.000000   24976.477922  -31592.282868    1111.551677 
 2340000     296.895203   -4631.418024   -5517.291218       0.000000       0.000000       0.000000   24964.122493  -31591.741461    1110.327751 
 2350000     299.789913   -4656.824381   -5551.334782       0.000000       0.000000       0.000000   24945.828021  -31596.197071    1099.034268 
 2360000     320.350331   -4522.790140   -5478.648530       0.000000       0.000000       0.000000   25021.597410  -31590.958335    1090.712395 
 2370000     300.569435   -4592.429361   -5489.265695       0.000000       0.000000       0.000000   24986.319146  -31590.989847    1115.405006 
 2380000     300.442436   -4639.116234   -5535.573628       0.000000       0.000000       0.000000   24915.843882  -31592.473308    1141.055797 
 2390000     300.185205   -4584.155245   -5479.845117       0.000000       0.000000       0.000000   24990.852793  -31594.873908    1124.175997 
 2400000     305.004508   -4674.735866   -5584.805529       0.000000       0.000000       0.000000   24950.826625  -31595.030268    1059.398113 
 2410000     285.596970   -4693.153949   -5545.315576       0.000000       0.000000       0.000000   24913.995063  -31593.753390    1134.442751 
 2420000     294.612006   -4679.008506   -5558.069117       0.000000       0.000000       0.000000   24862.476233  -31587.651895    1167.106545 
 2430000     303.633891   -4638.947605   -5544.927634       0.000000       0.000000       0.000000   24968.605410  -31590.711856    1077.178813 
 2440000     300.122221   -4572.661157   -5468.163097       0.000000       0.000000       0.000000   25041.633003  -31588.757420    1078.961321 
 2450000     301.445014   -4603.637024   -5503.085903       0.000000       0.000000       0.000000   25023.624071  -31590.746858    1064.036885 
 2460000     299.707346   -4559.616895   -5453.880935       0.000000       0.000000       0.000000   25092.561856  -31591.692629    1045.249838 
 2470000     287.148429   -4619.880467   -5476.671323       0.000000       0.000000       0.000000   24981.559061  -31588.468629    1130.238245 
 2480000     302.464833   -4545.375935   -5447.867740       0.000000       0.000000       0.000000   25077.036637  -31590.056134    1065.151757 
 2490000     303.046186   -4596.259892   -5500.486332       0.000000       0.000000       0.000000   24990.946994  -31592.509035    1101.075709 
 2500000     312.045085   -4563.506720   -5494.583994       0.000000       0.000000       0.000000   24978.693983  -31593.020830    1119.742853 
 2510000     300.331963   -4594.647024   -5490.774790       0.000000       0.000000       0.000000   25047.998459  -31589.645468    1050.872220 
 2520000     300.889355   -4650.241564   -5548.032472       0.000000       0.000000       0.000000   24950.789350  -31594.083378    1095.261556 
 2530000     301.769993   -4669.652291   -5570.070839       0.000000       0.000000       0.000000   24979.169291  -31591.652981    1042.412851 
 2540000     308.570746   -4632.018382   -5552.728955       0.000000       0.000000       0.000000   24942.234079  -31590.606268    1095.643234 
 2550000     301.509497   -4641.904182   -5541.545463       0.000000       0.000000       0.000000   24986.082550  -31589.232423    1061.604411 
 2560000     303.001391   -4634.814941   -5538.907722       0.000000       0.000000       0.000000   24925.436060  -31593.725096    1129.381314 
 2570000     305.311302   -4657.045461   -5568.030533       0.000000       0.000000       0.000000   24877.707175  -31593.219287    1147.481580 
 2580000     301.062002   -4630.092304   -5528.398354       0.000000       0.000000       0.000000   24931.023077  -31593.441329    1134.019898 
 2590000     302.993839   -4585.827175   -5489.897423       0.000000       0.000000       0.000000   25038.293554  -31588.290487    1060.099511 
 2600000     303.680930   -4572.055797   -5478.176181       0.000000       0.000000       0.000000   25119.469466  -31593.333380     995.687733 
 2610000     296.488512   -4609.861366   -5494.521079       0.000000       0.000000       0.000000   25027.955739  -31591.010850    1068.534032 
 2620000     296.623364   -4704.907781   -5589.969863       0.000000       0.000000       0.000000   24869.700743  -31592.617368    1132.946763 
 2630000     303.827517   -4574.256704   -5480.814472       0.000000       0.000000       0.000000   25058.544878  -31589.472529    1050.113179 
 2640000     300.787993   -4670.486473   -5567.974937       0.000000       0.000000       0.000000   24879.431365  -31590.432987    1143.026686 
 2650000     308.838852   -4565.024915   -5486.535458       0.000000       0.000000       0.000000   24990.199440  -31591.676510    1114.941612 
 2660000     292.163804   -4650.515836   -5522.271526       0.000000       0.000000       0.000000   24955.191825  -31590.216539    1112.753189 
 2670000     317.355127   -4584.958362   -5531.879688       0.000000       0.000000       0.000000   24938.829178  -31589.396302    1118.687436 
 2680000     289.251379   -4596.922306   -5459.987927       0.000000       0.000000       0.000000   25109.784217  -31593.111401    1023.339258 
 2690000     303.540444   -4644.397488   -5550.098692       0.000000       0.000000       0.000000   24917.620368  -31591.887843    1124.168783 
 2700000     298.503994   -4623.606864   -5514.280353       0.000000       0.000000       0.000000   24941.514975  -31587.456166    1131.660838 
 2710000     292.046533   -4629.167080   -5500.572856       0.000000       0.000000       0.000000   24998.474381  -31590.040542    1090.993304 
 2720000     292.826956   -4629.376376   -5503.110772       0.000000       0.000000       0.000000   25072.918402  -31586.099930    1010.070757 
 2730000     281.756847   -4725.746533   -5566.450039       0.000000       0.000000       0.000000   24907.365285  -31593.134354    1119.319030 
 2740000     294.750936   -4613.215435   -5492.690583       0.000000       0.000000       0.000000   25004.496844  -31587.169226    1089.981799 
 2750000     306.742302   -4637.534020   -5552.788896       0.000000       0.000000       0.000000   24967.946048  -31591.840236    1071.105292 
 2760000     293.103189   -4638.488652   -5513.047269       0.000000       0.000000       0.000000   24952.131676  -31591.945913    1126.766968 
 2770000     295.492729   -4667.175809   -5548.864313       0.000000       0.000000       0.000000   24910.790320  -31587.940170    1128.285537 
 2780000     299.699148   -4595.938050   -5490.177628       0.000000       0.000000       0.000000   25098.574565  -31591.637622    1002.885428 
 2790000     308.284543   -4593.792075   -5513.648676       0.000000       0.000000       0.000000   24946.343412  -31592.277668    1132.285581 
 2800000     287.699778   -4690.925778   -5549.361746       0.000000       0.000000       0.000000   24885.643765  -31591.125488    1156.119978 
 2810000     304.542144   -4607.196530   -5515.886595       0.000000       0.000000       0.000000   24943.241724  -31591.282533    1132.154214 
 2820000     294.465480   -4616.005001   -5494.628409       0.000000       0.000000       0.000000   25059.047909  -31585.098102    1031.421784 
 2830000     298.920546   -4626.989030   -5518.905422       0.000000       0.000000       0.000000   24979.403149  -31589.415839    1091.107268 
 2840000     289.742600   -4670.823114   -5535.354438       0.000000       0.000000       0.000000   24868.433635  -31592.148157    1188.360084 
 2850000     294.356004   -4657.965450   -5536.262205       0.000000       0.000000       0.000000   24901.929154  -31595.872606    1157.681246 
 2860000     295.617986   -4619.218632   -5501.280876       0.000000       0.000000       0.000000   25025.841931  -31595.646538    1068.523732 
 2870000     283.292836   -4685.007653   -5530.294227       0.000000       0.000000       0.000000   24876.507284  -31590.527636    1183.726126 
 2880000     312.841801   -4624.641283   -5558.095789       0.000000       0.000000       0.000000   24909.566759  -31583.948286    1116.285738 
 2890000     305.895472   -4652.504023   -5565.232135       0.000000       0.000000       0.000000   24937.672696  -31593.271858    1090.367027 
 2900000     306.325899   -4653.722055   -5567.734474       0.000000       0.000000       0.000000   24909.405631  -31592.509378    1115.369273 
 2910000     299.613428   -4620.271776   -5514.255584       0.000000       0.000000       0.000000   24965.031128  -31590.756784    1111.470073 
 2920000     298.827264   -4576.920156   -5468.558216       0.000000       0.000000       0.000000   25032.328398  -31586.364523    1085.477909 
 2930000     313.901111   -4535.268530   -5471.883797       0.000000       0.000000       0.000000   25045.107248  -31593.284322    1076.293277 
 2940000     301.025963   -4637.886229   -5536.084745       0.000000       0.000000       0.000000   25006.269405  -31591.624087    1049.269937 
 2950000     285.761660   -4627.253765   -5479.906794       0.000000       0.000000       0.000000   25047.236688  -31588.818895    1061.675413 
 2960000     302.156574   -4646.191026   -5547.763050       0.000000       0.000000       0.000000   25022.810345  -31591.378836    1020.805441 
 2970000     297.687836   -4650.122040   -5538.360284       0.000000       0.000000       0.000000   24949.954088  -31590.243777    1101.929405 
 2980000     304.086191   -4648.787347   -5556.116944       0.000000       0.000000       0.000000   24926.032768  -31591.107707    1108.957995 
 2990000     286.610004   -4726.491781   -5581.676090       0.000000       0.000000       0.000000   24910.773620  -31594.616577    1102.166867 
 3000000     300.075477   -4619.580458   -5514.942922       0.000000       0.000000       0.000000   24969.327544  -31591.625255    1107.354789 
 3010000     296.248365   -4709.882658   -5593.825822       0.000000       0.000000       0.000000   24904.658667  -31591.749908    1093.265419 
 3020000     300.232548   -4642.619234   -5538.450366       0.000000       0.000000       0.000000   24966.708548  -31587.932668    1082.773753 
 3030000     304.229240   -4603.566772   -5511.323199       0.000000       0.000000       0.000000   25013.653725  -31591.068410    1066.091486 
 3040000     295.535207   -4647.334052   -5529.149300       0.000000       0.000000       0.000000   25023.779833  -31588.762525    1035.833391 
 3050000     301.922820   -4628.742354   -5529.616904       0.000000       0.000000       0.000000   24979.441188  -31589.420513    1080.362421 
 3060000     299.919792   -4622.823216   -5517.721150       0.000000       0.000000       0.000000   24992.777919  -31591.695409    1081.196340 
 3070000     297.622328   -4576.138052   -5464.180835       0.000000       0.000000       0.000000   24965.313860  -31586.216841    1156.722146 
 3080000     290.443357   -4661.170080   -5527.792315       0.000000       0.000000       0.000000   25015.188602  -31592.266854    1049.285937 
 3090000     282.525423   -4636.092953   -5479.089727       0.000000       0.000000       0.000000   25063.508513  -31589.320225    1046.721984 
 3100000     296.047868   -4633.083533   -5516.428456       0.000000       0.000000       0.000000   24998.430605  -31586.486834    1071.627773 
 3110000     298.714205   -4640.320662   -5531.621378       0.000000       0.000000       0.000000   25007.575627  -31592.959099    1053.762094 
 3120000     306.214737   -4583.455851   -5497.136585       0.000000       0.000000       0.000000   25033.607435  -31586.862786    1056.118765 
 3130000     313.145511   -4553.399626   -5487.760339       0.000000       0.000000       0.000000   25002.562095  -31591.045368    1100.722934 
 3140000     293.521208   -4661.249241   -5537.055138       0.000000       0.000000       0.000000   25024.856390  -31592.022739    1030.111210 
 3150000     298.259061   -4679.268887   -5569.211547       0.000000       0.000000       0.000000   24932.054562  -31589.513160    1088.247052 
 3160000     300.888117   -4597.622135   -5495.409350       0.000000       0.000000       0.000000   25027.005923  -31587.632741    1065.217469 
 3170000     307.311273   -4573.243952   -5490.196520       0.000000       0.000000       0.000000   25016.154074  -31590.373174    1084.022580 
 3180000     298.002141   -4626.250117   -5515.426181       0.000000       0.000000       0.000000   25034.686292  -31592.245994    1042.133522 
 3190000     296.993939   -4583.637063   -5469.804864       0.000000       0.000000       0.000000   25076.112883  -31593.960117    1048.042371 
 3200000     317.557093   -4623.483358   -5571.007311       0.000000       0.000000       0.000000   24907.210132  -31596.272217    1118.054773 
 3210000     310.620976   -4597.763191   -5524.591221       0.000000       0.000000       0.000000   24989.984444  -31587.634072    1073.058408 
 3220000     300.098375   -4598.264409   -5493.695196       0.000000       0.000000       0.000000   25000.227169  -31589.300315    1095.377949 
 3230000     309.776070   -4631.365989   -5555.672996       0.000000       0.000000       0.000000   24938.175767  -31589.019917    1095.171154 
 3240000     290.901472   -4630.470063   -5498.459216       0.000000       0.000000       0.000000   24994.476050  -31592.613333    1099.678066 
 3250000     309.420067   -4607.658219   -5530.902986       0.000000       0.000000       0.000000   24920.393319  -31588.286816    1136.990511 
 3260000     296.760201   -4673.433987   -5558.904361       0.000000       0.000000       0.000000   24959.312041  -31591.314403    1073.098001 
 3270000     301.373070   -4655.113402   -5554.347614       0.000000       0.000000       0.000000   24909.812812  -31592.151828    1127.991401 
 3280000     308.100680   -4653.155756   -5572.463748       0.000000       0.000000       0.000000   24977.169857  -31592.588952    1042.955346 
 3290000     289.542289   -4651.777570   -5515.711206       0.000000       0.000000       0.000000   25052.551137  -31593.797251    1025.534907 
 3300000     303.792090   -4647.742344   -5554.194404       0.000000       0.000000       0.000000   24913.631235  -31592.926297    1125.100658 
 3310000     307.910036   -4509.235905   -5427.975056       0.000000       0.000000       0.000000   25083.751379  -31587.668333    1075.941899 
 3320000     297.081363   -4673.783838   -5560.212494       0.000000       0.000000       0.000000   24893.448618  -31591.253747    1137.592636 
 3330000     299.946552   -4696.408468   -5591.386248       0.000000       0.000000       0.000000   24929.458428  -31592.347620    1071.502944 
 3340000     300.881647   -4616.894702   -5514.662609       0.000000       0.000000       0.000000   25049.800977  -31589.769296    1025.305711 
 3350000     303.063691   -4652.220582   -5556.499253       0.000000       0.000000       0.000000   24979.773809  -31591.173977    1054.900914 
 3360000     308.801949   -4585.508655   -5506.909088       0.000000       0.000000       0.000000   25009.444395  -31592.017918    1075.664435 
 3370000     300.050618   -4663.175545   -5558.463836       0.000000       0.000000       0.000000   24872.641635  -31592.022969    1160.917499 
 3380000     299.254649   -4615.645978   -5508.559263       0.000000       0.000000       0.000000   24943.363926  -31588.034181    1136.110992 
 3390000     309.242064   -4662.928650   -5585.642296       0.000000       0.000000       0.000000   24907.704234  -31593.469016    1100.122486 
 3400000     292.176078   -4611.884679   -5483.676990       0.000000       0.000000       0.000000   24986.101077  -31587.577540    1117.799473 
 3410000     303.545911   -4585.907707   -5491.625223       0.000000       0.000000       0.000000   25005.174251  -31591.822936    1095.023463 
 3420000     306.568225   -4534.703443   -5449.438911       0.000000       0.000000       0.000000   25029.750581  -31586.835675    1107.646183 
 3430000     292.950468   -4673.884398   -5547.987328       0.000000       0.000000       0.000000   24903.050268  -31592.128455    1141.090858 
 3440000     290.685512   -4644.652574   -5511.997347       0.000000       0.000000       0.000000   24972.647515  -31589.178888    1104.534026 
 3450000     305.079448   -4625.480685   -5535.773954       0.000000       0.000000       0.000000   25012.532370  -31590.990261    1042.683937 
 3460000     298.345693   -4630.862857   -5521.064011       0.000000       0.000000       0.000000   24976.483359  -31591.017415    1093.470045 
 3470000     309.094984   -4648.656786   -5570.931573       0.000000       0.000000       0.000000   24882.608833  -31589.320848    1135.780442 
 3480000     298.088850   -4670.488730   -5559.923516       0.000000       0.000000       0.000000   25034.323440  -31592.859281     998.612325 
 3490000     293.938198   -4541.633800   -5418.683910       0.000000       0.000000       0.000000   25107.337981  -31591.690273    1065.668382 
 3500000     298.090895   -4614.508116   -5503.949002       0.000000       0.000000       0.000000   25052.766429  -31588.538325    1031.822894 
 3510000     297.665445   -4592.190855   -5480.362290       0.000000       0.000000       0.000000   25091.119255  -31588.990554    1017.509009 
 3520000     299.751879   -4619.630216   -5514.027133       0.000000       0.000000       0.000000   24994.539114  -31589.085254    1080.519007 
 3530000     299.820415   -4687.636996   -5582.238410       0.000000       0.000000       0.000000   24914.044352  -31590.284539    1094.001777 
 3540000     308.661292   -4598.395280   -5519.376021       0.000000       0.000000       0.000000   25074.745926  -31593.527389     999.405442 
 3550000     296.934068   -4635.259704   -5521.248863       0.000000       0.000000       0.000000   24972.347202  -31594.173381    1100.577315 
 3560000     282.301806   -4664.643320   -5506.972870       0.000000       0.000000       0.000000   25043.209924  -31590.326041    1040.143247 
 3570000     286.102873   -4637.587031   -5491.258170       0.000000       0.000000       0.000000   24996.593039  -31587.883286    1100.032077 
 3580000     299.478443   -4587.664185   -5481.245226       0.000000       0.000000       0.000000   25036.753354  -31593.763195    1075.764615 
 3590000     295.388890   -4645.209333   -5526.588002       0.000000       0.000000       0.000000   24953.172647  -31592.862172    1113.101523 
 3600000     315.824136   -4565.857474   -5508.210643       0.000000       0.000000       0.000000   25028.612325  -31587.393102    1050.570135 
 3610000     313.306178   -4584.728513   -5519.568623       0.000000       0.000000       0.000000   24963.881984  -31593.430278    1109.979671 
 3620000     314.571482   -4586.741660   -5525.357172       0.000000       0.000000       0.000000   24994.170518  -31591.668166    1072.140476 
 3630000     303.687151   -4584.718008   -5490.856954       0.000000       0.000000       0.000000   24999.076985  -31589.072375    1099.138436 
 3640000     293.559179   -4629.324780   -5505.243975       0.000000       0.000000       0.000000   25064.177966  -31590.671305    1021.249364 
 3650000     299.228477   -4700.915358   -5593.750553       0.000000       0.000000       0.000000   24868.353889  -31591.347209    1129.242766 
 3660000     283.782059   -4767.095188   -5613.841503       0.000000       0.000000       0.000000   24875.409232  -31592.621559    1103.370824 
 3670000     292.492852   -4721.928081   -5594.665578       0.000000       0.000000       0.000000   24902.236564  -31593.478928    1096.576785 
 3680000     321.157448   -4639.376902   -5597.643559       0.000000       0.000000       0.000000   24890.427550  -31589.207355    1101.136246 
 3690000     321.841219   -4588.446957   -5548.753846       0.000000       0.000000       0.000000   24973.076905  -31591.664110    1069.833359 
 3700000     303.878849   -4654.557609   -5561.268542       0.000000       0.000000       0.000000   24988.020184  -31590.017345    1040.728619 
 3710000     294.364172   -4716.944331   -5595.265457       0.000000       0.000000       0.000000   24827.873022  -31590.044368    1166.905889 
 3720000     294.632173   -4585.450132   -5464.570918       0.000000       0.000000       0.000000   25095.139147  -31587.688962    1027.978897 
 3730000     300.671254   -4586.499067   -5483.639205       0.000000       0.000000       0.000000   24984.782238  -31590.900985    1122.479542 
 3740000     306.944287   -4605.569700   -5521.427260       0.000000       0.000000       0.000000   24938.350508  -31593.097257    1133.319490 
 3750000     306.838437   -4620.226175   -5535.767900       0.000000       0.000000       0.000000   25006.959436  -31590.168564    1047.441228 
 3760000     302.720724   -4696.644322   -5599.899650       0.000000       0.000000       0.000000   24912.130740  -31593.298279    1081.267889 
 3770000     300.501594   -4629.948407   -5526.582316       0.000000       0.000000       0.000000   24987.677561  -31589.083260    1074.823384 
 3780000     310.169087   -4629.920982   -5555.400670       0.000000       0.000000       0.000000   24990.369228  -31594.356069    1048.586171 
 3790000     299.322573   -4637.785024   -5530.900982       0.000000       0.000000       0.000000   24966.349211  -31587.664270    1090.414077 
 3800000     302.515467   -4626.070933   -5528.713819       0.000000       0.000000       0.000000   24967.891882  -31590.511121    1093.905419 
 3810000     302.759484   -4652.596475   -5555.967455       0.000000       0.000000       0.000000   24986.957468  -31587.666436    1044.741512 
 3820000     281.688796   -4657.028844   -5497.529298       0.000000       0.000000       0.000000   24993.467559  -31589.514450    1098.517593 
 3830000     299.365441   -4602.603491   -5495.847358       0.000000       0.000000       0.000000   25036.682678  -31587.604825    1055.074789 
 3840000     302.396325   -4662.369698   -5564.657088       0.000000       0.000000       0.000000   24904.242254  -31591.680018    1122.780675 
 3850000     309.518589   -4584.461837   -5508.000575       0.000000       0.000000       0.000000   24985.105842  -31590.658110    1097.551693 
 3860000     281.919954   -4650.155644   -5491.345825       0.000000       0.000000       0.000000   24970.546715  -31589.743917    1127.851378 
 3870000     296.684162   -4643.077651   -5528.321141       0.000000       0.000000       0.000000   24982.596833  -31592.598331    1081.680357 
 3880000     292.066038   -4700.078767   -5571.542743       0.000000       0.000000       0.000000   24874.411598  -31589.372072    1143.417730 
 3890000     303.939735   -4550.770683   -5457.663288       0.000000       0.000000       0.000000   25081.003093  -31589.094612    1050.428232 
 3900000     302.286607   -4604.628500   -5506.588515       0.000000       0.000000       0.000000   24936.663290  -31591.877777    1148.625972 
 3910000     285.201197   -4613.211059   -5464.191783       0.000000       0.000000       0.000000   25140.178768  -31589.741218     985.370667 
 3920000     299.029184   -4616.261428   -5508.501975       0.000000       0.000000       0.000000   25035.551353  -31590.465056    1046.411727 
 3930000     292.297009   -4691.853293   -5564.006437       0.000000       0.000000       0.000000   24951.646759  -31589.389008    1073.735813 
 3940000     301.983642   -4592.621785   -5493.677817       0.000000       0.000000       0.000000   24965.109857  -31591.299096    1132.511422 
 3950000     301.382266   -4576.921764   -5476.183416       0.000000       0.000000       0.000000   24991.262422  -31584.472764    1117.026926 
 3960000     294.897157   -4644.340621   -5524.252064       0.000000       0.000000       0.000000   24954.428307  -31589.207243    1110.526872 
 3970000     301.504994   -4692.021497   -5591.649342       0.000000       0.000000       0.000000   24893.771970  -31591.280761    1105.859449 
 3980000     310.223087   -4615.780376   -5541.421189       0.000000       0.000000       0.000000   24901.563326  -31591.347190    1148.362675 
 3990000     299.661172   -4626.060944   -5520.187210       0.000000       0.000000       0.000000   25052.379328  -31586.055470    1013.488932 
 4000000     292.259740   -4627.151079   -5499.193022       0.000000       0.000000       0.000000   25094.295807  -31589.532977     996.044148 
 4010000     300.483702   -4624.069732   -5520.650255       0.000000       0.000000       0.000000   24944.609064  -31590.741492    1125.482173 
 4020000     305.707736   -4612.058692   -5524.226640       0.000000       0.000000       0.000000   24975.416819  -31593.879740    1094.236282 
 4030000     299.054388   -4639.719066   -5532.034816       0.000000       0.000000       0.000000   25001.491297  -31590.052762    1056.526649 
 4040000     300.302471   -4600.926909   -5496.966676       0.000000       0.000000       0.000000   24987.495901  -31589.084217    1104.621640 
 4050000     297.132370   -4610.269435   -5496.850285       0.000000       0.000000       0.000000   24973.948960  -31590.070696    1119.271452 
 4060000     284.518880   -4771.811935   -5620.756768       0.000000       0.000000       0.000000   24888.443307  -31595.426440    1086.226365 
 4070000     306.593362   -4539.519938   -5454.330409       0.000000       0.000000       0.000000   25101.432889  -31585.212998    1029.449699 
 4080000     305.999278   -4600.439755   -5513.477603       0.000000       0.000000       0.000000   25000.675755  -31591.778457    1077.625100 
 4090000     321.027922   -4539.870550   -5497.750729       0.000000       0.000000       0.000000   25058.647068  -31590.455009    1034.057212 
 4100000     300.128231   -4659.867108   -5555.386980       0.000000       0.000000       0.000000   24929.031499  -31593.544164    1109.125685 
 4110000     300.124315   -4668.319226   -5563.827416       0.000000       0.000000       0.000000   24939.581651  -31591.934696    1088.525630 
 4120000     311.276895   -4569.651839   -5498.436993       0.000000       0.000000       0.000000   24922.251366  -31589.219589    1168.531230 
 4130000     309.326570   -4547.590326   -5470.556119       0.000000       0.000000       0.000000   25040.756261  -31594.431221    1083.118841 
 4140000     296.111933   -4627.582162   -5511.118241       0.000000       0.000000       0.000000   25023.726803  -31593.544020    1058.698976 
 4150000     299.815305   -4615.546732   -5510.132899       0.000000       0.000000       0.000000   25000.948520  -31592.424369    1081.342950 
 4160000     290.583721   -4617.729639   -5484.770689       0.000000       0.000000       0.000000   25022.788252  -31588.782786    1081.223845 
 4170000     284.385287   -4671.764958   -5520.311177       0.000000       0.000000       0.000000   24956.195029  -31590.089337    1113.583131 
 4180000     304.833969   -4660.491445   -5570.052256       0.000000       0.000000       0.000000   24941.525285  -31596.940575    1085.363035 
 4190000     306.524378   -4569.287506   -5483.892144       0.000000       0.000000       0.000000   25029.456143  -31589.640500    1076.292213 
 4200000     297.688397   -4664.900322   -5553.140240       0.000000       0.000000       0.000000   24904.787443  -31590.543539    1132.615856 
 4210000     291.598651   -4710.070838   -5580.140227       0.000000       0.000000       0.000000   24869.293148  -31590.788844    1141.355469 
 4220000     305.689661   -4651.236831   -5563.350848       0.000000       0.000000       0.000000   24884.563975  -31591.697347    1143.782524 
 4230000     291.645036   -4732.236515   -5602.444307       0.000000       0.000000       0.000000   24859.384868  -31589.264507    1127.435331 
 4240000     284.254561   -4702.034872   -5550.191034       0.000000       0.000000       0.000000   24973.385743  -31590.875687    1067.298910 
 4250000     307.394849   -4575.226608   -5492.428548       0.000000       0.000000       0.000000   25014.551857  -31591.879129    1084.898724 
 4260000     306.227066   -4624.236456   -5537.953976       0.000000       0.000000       0.000000   24945.156084  -31588.311260    1105.201200 
 4270000     303.189610   -4574.483336   -5479.137723       0.000000       0.000000       0.000000   25044.092998  -31588.934899    1065.704178 
 4280000     304.045904   -4582.600644   -5489.810033       0.000000       0.000000       0.000000   24937.365059  -31588.474293    1161.299201 
 4290000     301.567065   -4605.568350   -5505.381403       0.000000       0.000000       0.000000   25009.948385  -31590.274244    1074.944455 
 4300000     313.695702   -4485.632389   -5421.634759       0.000000       0.000000       0.000000   25070.141396  -31590.984216    1099.208061 
 4310000     296.905328   -4617.884311   -5503.787716       0.000000       0.000000       0.000000   25038.100528  -31594.339237    1052.450993 
 4320000     312.301875   -4513.445035   -5445.288515       0.000000       0.000000       0.000000   25032.827555  -31590.571207    1112.455136 
 4330000     287.142778   -4597.281817   -5454.055814       0.000000       0.000000       0.000000   25120.915494  -31591.992763    1017.021455 
 4340000     308.398390   -4568.874909   -5489.071207       0.000000       0.000000       0.000000   25013.523247  -31590.680860    1088.086405 
 4350000     299.230711   -4668.844757   -5561.686619       0.000000       0.000000       0.000000   24933.410338  -31595.789224    1100.692266 
 4360000     292.167970   -4662.608517   -5534.376635       0.000000       0.000000       0.000000   24950.672283  -31592.031179    1106.982262 
 4370000     285.021859   -4684.121114   -5534.566732       0.000000       0.000000       0.000000   24988.708603  -31591.869525    1068.594191 
 4380000     303.778734   -4641.322608   -5547.734818       0.000000       0.000000       0.000000   24921.311423  -31587.327606    1118.281365 
 4390000     291.796353   -4694.492064   -5565.151356       0.000000       0.000000       0.000000   24948.867643  -31592.764009    1078.745009 
 4400000     305.381779   -4606.476874   -5517.672235       0.000000       0.000000       0.000000   25007.720794  -31596.042415    1070.649386 
 4410000     302.923703   -4605.363756   -5509.224731       0.000000       0.000000       0.000000   25028.743896  -31592.321301    1054.352674 
 4420000     303.761394   -4708.462580   -5614.823053       0.000000       0.000000       0.000000   24815.319879  -31587.519792    1157.376861 
 4430000     309.285520   -4566.842584   -5489.685890       0.000000       0.000000       0.000000   25130.756642  -31593.883500     973.440967 
 4440000     295.103825   -4600.447872   -5480.975969       0.000000       0.000000       0.000000   25016.678194  -31589.810351    1092.156188 
 4450000     297.847651   -4647.698227   -5536.413327       0.000000       0.000000       0.000000   24913.279819  -31591.892216    1142.199070 
 4460000     308.903004   -4579.374434   -5501.076394       0.000000       0.000000       0.000000   25025.627667  -31592.113516    1065.409455 
 4470000     309.327049   -4607.093778   -5530.061000       0.000000       0.000000       0.000000   25005.491753  -31594.092268    1058.539515 
 4480000     294.807260   -4600.696187   -5480.339395       0.000000       0.000000       0.000000   24976.343245  -31591.723053    1135.040412 
 4490000     288.455263   -4685.437086   -5546.127263       0.000000       0.000000       0.000000   24896.007724  -31590.139643    1148.004656 
 4500000     298.453992   -4660.925969   -5551.450261       0.000000       0.000000       0.000000   24919.081239  -31594.482905    1123.951405 
 4510000     291.796895   -4587.868216   -5458.529125       0.000000       0.000000       0.000000   24997.984424  -31591.359729    1134.846180 
 4520000     298.215925   -4612.573924   -5502.387875       0.000000       0.000000       0.000000   25007.746178  -31591.979950    1081.845897 
 4530000     295.030165   -4604.745061   -5485.053371       0.000000       0.000000       0.000000   24988.037037  -31591.365246    1118.274838 
 4540000     295.706073   -4624.629911   -5506.954989       0.000000       0.000000       0.000000   24972.306081  -31587.550742    1108.289673 
 4550000     303.547004   -4516.074082   -5421.794858       0.000000       0.000000       0.000000   25098.058007  -31588.659721    1068.806856 
 4560000     296.275103   -4630.969462   -5514.992408       0.000000       0.000000       0.000000   24948.946746  -31589.903188    1125.964035 
 4570000     298.656352   -4653.320601   -5544.448693       0.000000       0.000000       0.000000   24973.271451  -31591.418089    1073.697944 
 4580000     303.989725   -4639.433610   -5546.475373       0.000000       0.000000       0.000000   24942.456455  -31589.306805    1100.374977 
 4590000     298.601166   -4608.603797   -5499.567228       0.000000       0.000000       0.000000   24945.469492  -31593.947354    1148.910634 
 4600000     298.319783   -4638.665012   -5528.788854       0.000000       0.000000       0.000000   25027.133950  -31589.453260    1033.530456 
 4610000     303.478599   -4638.920189   -5544.436859       0.000000       0.000000       0.000000   24933.530827  -31589.905827    1111.938141 
 4620000     313.960813   -4610.375411   -5547.168816       0.000000       0.000000       0.000000   24963.246183  -31593.789195    1083.374196 
 4630000     306.600202   -4633.393384   -5548.224265       0.000000       0.000000       0.000000   25038.431015  -31593.738146    1007.082867 
 4640000     295.800880   -4634.442837   -5517.050799       0.000000       0.000000       0.000000   24972.947721  -31583.657772    1093.659252 
 4650000     288.657004   -4633.146249   -5494.438380       0.000000       0.000000       0.000000   25023.270063  -31589.449551    1071.741108 
 4660000     309.227858   -4674.583851   -5597.255107       0.000000       0.000000       0.000000   24891.123778  -31590.068079    1101.689193 
 4670000     302.529514   -4655.293788   -5557.978587       0.000000       0.000000       0.000000   24950.974761  -31590.801160    1081.847812 
 4680000     309.497988   -4630.434232   -5553.911498       0.000000       0.000000       0.000000   24848.660108  -31591.632885    1189.061279 
 4690000     301.294388   -4636.303830   -5535.303272       0.000000       0.000000       0.000000   24926.704373  -31586.853035    1124.845390 
 4700000     312.410092   -4573.170446   -5505.336824       0.000000       0.000000       0.000000   25033.685095  -31590.640757    1051.618839 
 4710000     297.394805   -4650.628086   -5537.991986       0.000000       0.000000       0.000000   24938.030832  -31592.251925    1116.229106 
 4720000     314.229534   -4489.071137   -5426.666349       0.000000       0.000000       0.000000   25153.259131  -31586.420887    1006.495406 
 4730000     280.797628   -4763.664194   -5601.505591       0.000000       0.000000       0.000000   24843.699708  -31594.009115    1148.803816 
 4740000     286.090621   -4683.153325   -5536.787904       0.000000       0.000000       0.000000   24971.323849  -31595.728392    1087.616639 
 4750000     300.091861   -4633.392429   -5528.803781       0.000000       0.000000       0.000000   24960.561666  -31592.775987    1103.410540 
 4760000     319.780063   -4612.886359   -5567.043188       0.000000       0.000000       0.000000   24901.691421  -31592.737165    1124.002556 
 4770000     298.301447   -4673.462409   -5563.531539       0.000000       0.000000       0.000000   24907.061455  -31593.799221    1123.206227 
 4780000     289.700403   -4637.335692   -5501.741105       0.000000       0.000000       0.000000   24919.819224  -31588.581953    1167.021623 
 4790000     298.794490   -4614.669255   -5506.209525       0.000000       0.000000       0.000000   24982.481864  -31589.560069    1100.868681 
 4800000     311.066320   -4636.645071   -5564.801915       0.000000       0.000000       0.000000   24863.216780  -31590.783598    1162.764903 
 4810000     294.180566   -4655.721878   -5533.495163       0.000000       0.000000       0.000000   24959.892043  -31588.715676    1095.328470 
 4820000     310.942191   -4558.172080   -5485.958547       0.000000       0.000000       0.000000   25076.611083  -31590.258629    1027.688999 
 4830000     284.084418   -4676.915505   -5524.563996       0.000000       0.000000       0.000000   24983.927073  -31590.294951    1081.803882 
 4840000     287.744466   -4614.467380   -5473.036687       0.000000       0.000000       0.000000   25068.659433  -31592.827396    1051.131276 
 4850000     297.936715   -4688.311475   -5577.292322       0.000000       0.000000       0.000000   24914.688809  -31594.557400    1102.576269 
 4860000     299.820599   -4571.390736   -5465.992700       0.000000       0.000000       0.000000   25047.186745  -31588.952665    1075.773220 
 4870000     305.194969   -4568.035076   -5478.673036       0.000000       0.000000       0.000000   25123.987876  -31590.690529     988.029617 
 4880000     297.195571   -4636.229720   -5522.999148       0.000000       0.000000       0.000000   24988.690912  -31588.252895    1076.562835 
 4890000     283.332721   -4605.509195   -5450.914778       0.000000       0.000000       0.000000   25099.292168  -31592.186500    1041.979553 
 4900000     295.904360   -4689.672308   -5572.589034       0.000000       0.000000       0.000000   24856.391310  -31593.428716    1164.448372 
 4910000     307.190638   -4564.193974   -5480.786593       0.000000       0.000000       0.000000   24999.569410  -31588.008497    1107.652494 
 4920000     306.330516   -4707.350798   -5621.376991       0.000000       0.000000       0.000000   24852.216511  -31592.546359    1118.952857 
 4930000     299.321718   -4643.648810   -5536.762215       0.000000       0.000000       0.000000   25012.861899  -31591.417359    1041.793244 
 4940000     308.113743   -4609.559777   -5528.906747       0.000000       0.000000       0.000000   24955.886646  -31588.638815    1103.845422 
 4950000     296.794084   -4658.179669   -5543.751144       0.000000       0.000000       0.000000   24933.789576  -31594.560655    1117.019935 
 4960000     322.372150   -4586.770370   -5548.661445       0.000000       0.000000       0.000000   24909.373410  -31587.718193    1129.683338 
 4970000     312.164133   -4605.968556   -5537.401044       0.000000       0.000000       0.000000   24947.041878  -31588.832037    1104.389116 
 4980000     293.647664   -4594.459091   -5470.642307       0.000000       0.000000       0.000000   25039.895949  -31588.505167    1077.966911 
 4990000     297.314199   -4622.097731   -5509.221121       0.000000       0.000000       0.000000   24981.239338  -31592.305124    1101.844665 
 5000000     301.052152   -4685.200275   -5583.476935       0.000000       0.000000       0.000000   24923.605035  -31592.744810    1085.662841 
Loop time of 9777.7 on 8 procs for 5000000 steps with 1503 atoms

Performance: 44.182 ns/day, 0.543 hours/ns, 511.367 timesteps/s
99.2% CPU use with 8 MPI tasks x 1 OpenMP threads

MPI task timing breakdown:
Section |  min time  |  avg time  |  max time  |%varavg| %total
---------------------------------------------------------------
Pair    | 4885.2     | 4903.5     | 4922.4     |  17.3 | 50.15
Bond    | 1.361      | 1.5605     | 1.8634     |  12.3 |  0.02
Kspace  | 2621.9     | 2642.3     | 2657.5     |  24.9 | 27.02
Neigh   | 354.2      | 354.34     | 354.49     |   0.6 |  3.62
Comm    | 451.43     | 457.56     | 465.92     |  18.8 |  4.68
Output  | 2.0184     | 2.4106     | 2.6375     |  11.5 |  0.02
Modify  | 1350.9     | 1383       | 1388.8     |  32.7 | 14.14
Other   |            | 33.08      |            |       |  0.34

Nlocal:    187.875 ave 198 max 179 min
Histogram: 2 1 0 0 1 1 0 2 0 1
Nghost:    4538.62 ave 4593 max 4486 min
Histogram: 1 1 2 0 0 0 1 0 2 1
Neighs:    66256.4 ave 70251 max 63282 min
Histogram: 3 0 1 0 1 0 1 0 0 2

Total # of neighbors = 530051
Ave neighs/atom = 352.662
Ave special neighs/atom = 2
Neighbor list builds = 217137
Dangerous builds = 0
Total wall time: 3:15:38
