LAMMPS (3 Mar 2020)
  using 1 OpenMP thread(s) per MPI task
Reading data file ...
  orthogonal box = (0 0 0) to (24 24 24)
  2 by 2 by 2 MPI processor grid
  reading atoms ...
  1503 atoms
  scanning bonds ...
  2 = max bonds/atom
  scanning angles ...
  1 = max angles/atom
  reading bonds ...
  1002 bonds
  reading angles ...
  501 angles
Finding 1-2 1-3 1-4 neighbors ...
  special bond factors lj:   0          0          0         
  special bond factors coul: 0          0          0         
  2 = max # of 1-2 neighbors
  1 = max # of 1-3 neighbors
  1 = max # of 1-4 neighbors
  2 = max # of special neighbors
  special bonds CPU = 0.00144191 secs
  read_data CPU = 0.00715358 secs
Setting atom values ...
  1 settings made for charge
Setting atom values ...
  2 settings made for charge
Finding SHAKE clusters ...
  0 = # of size 2 clusters
  0 = # of size 3 clusters
  0 = # of size 4 clusters
  501 = # of frozen angles
  find clusters CPU = 0.0103113 secs
PPPM initialization ...
  using 12-bit tables for long-range coulomb (src/kspace.cpp:332)
  G vector (1/distance) = 0.315108
  grid = 24 24 24
  stencil order = 5
  estimated absolute RMS force accuracy = 0.00171047
  estimated relative force accuracy = 5.15102e-06
  using double precision MKL FFT
  3d grid and FFT values/proc = 6859 1728
Neighbor list info ...
  update every 1 steps, delay 10 steps, check yes
  max neighbors/atom: 2000, page size: 100000
  master list distance cutoff = 12
  ghost atom cutoff = 12
  binsize = 6, bins = 4 4 4
  3 neighbor lists, perpetual/occasional/extra = 3 0 0
  (1) pair lj/cut/coul/long, perpetual, skip from (3)
      attributes: half, newton on
      pair build: skip
      stencil: none
      bin: none
  (2) pair lj/cut/coul/long/soft, perpetual, skip from (3)
      attributes: half, newton on
      pair build: skip
      stencil: none
      bin: none
  (3) neighbor class addition, perpetual
      attributes: half, newton on
      pair build: half/bin/newton
      stencil: half/bin/3d/newton
      bin: standard
Per MPI rank memory allocation (min/avg/max) = 9.721 | 9.726 | 9.73 Mbytes
Step TotEng PotEng E_coul E_long E_vdwl 
       0   -5526.221069445404   -5526.221069445404   25211.705907366697  -31777.956972736160    1040.029995924058 
    1000   -5570.985555740408   -5570.985555740408   25093.575414508425  -31784.470796787300    1119.909826538469 
    2000   -5521.714284764199   -5521.714284764199   25154.713214733136  -31779.717577133819    1103.290077636489 
    3000   -5523.539950862832   -5523.539950862832   25190.159488481018  -31779.792011788843    1066.092572444990 
    4000   -5472.151125616805   -5472.151125616805   25242.798118715578  -31784.419100658943    1069.469856326560 
    5000   -5495.656405841208   -5495.656405841208   25215.376527743138  -31777.399101367864    1066.366167783518 
    6000   -5459.006957880320   -5459.006957880320   25258.302765741453  -31773.763457010344    1056.453733388573 
    7000   -5500.964882638174   -5500.964882638174   25186.107706476178  -31778.337611510120    1091.265022395769 
    8000   -5551.641800358382   -5551.641800358382   25100.014569608418  -31782.433194735531    1130.776824768729 
    9000   -5546.423253197921   -5546.423253197921   25108.567522670302  -31782.431315963287    1127.440540095068 
   10000   -5535.536021511420   -5535.536021511420   25120.387665548224  -31779.186497327064    1123.262810267419 
   11000   -5559.497332802781   -5559.497332802781   25110.603304447148  -31779.552964315397    1109.452327065469 
   12000   -5580.265855885060   -5580.265855885060   25050.270565705287  -31778.522029391952    1147.985607801605 
   13000   -5474.800457468195   -5474.800457468195   25246.787398278513  -31778.917322091937    1057.329466345231 
   14000   -5545.388563049641   -5545.388563049641   25144.059881045017  -31781.741148775498    1092.292704680838 
   15000   -5540.663339342449   -5540.663339342449   25153.161095045270  -31775.699150131564    1081.874715743844 
   16000   -5512.960656834694   -5512.960656834694   25108.186080273925  -31780.906871482948    1159.760134374333 
   17000   -5583.071099679553   -5583.071099679553   25082.520903272882  -31779.533868071660    1113.941865119227 
   18000   -5493.752688099790   -5493.752688099790   25224.967610186090  -31781.259843626205    1062.539545340325 
   19000   -5588.637611379367   -5588.637611379367   25077.744240524440  -31783.678591930970    1117.296740027166 
   20000   -5557.547003766551   -5557.547003766551   25081.588873832290  -31783.892877400664    1144.756999801818 
   21000   -5504.139961361117   -5504.139961361117   25243.527445344695  -31782.453053231780    1034.785646525971 
   22000   -5520.068970125521   -5520.068970125521   25186.679647106444  -31780.815105878737    1074.066488646761 
   23000   -5538.955414549018   -5538.955414549018   25110.445902764779  -31776.409041838255    1127.007724524457 
   24000   -5576.386069112661   -5576.386069112661   25038.447131030051  -31783.441538777508    1168.608338634791 
   25000   -5491.210707640694   -5491.210707640694   25159.687294610445  -31775.910915128094    1125.012912876959 
   26000   -5509.354591299692   -5509.354591299692   25201.977984299516  -31780.762058165070    1069.429482565863 
   27000   -5540.513333964762   -5540.513333964762   25140.236393492196  -31778.685217979564    1097.935490522604 
   28000   -5529.466666146804   -5529.466666146804   25236.369547013881  -31785.425271954784    1019.589058794099 
   29000   -5539.178659027286   -5539.178659027286   25132.256396514549  -31782.505538174893    1111.070482633060 
   30000   -5500.913836971649   -5500.913836971649   25195.167227908867  -31783.689456701850    1087.608391821334 
   31000   -5476.270143117050   -5476.270143117050   25201.734786249377  -31778.781932392252    1100.777003025825 
   32000   -5496.169214230245   -5496.169214230245   25171.369161187285  -31784.488033056488    1116.949657638958 
   33000   -5550.541185231046   -5550.541185231046   25037.729965234292  -31776.505291239879    1188.234140774539 
   34000   -5529.907327536675   -5529.907327536675   25146.072615277062  -31779.910803803585    1103.930860989849 
   35000   -5580.872000061936   -5580.872000061936   25104.642493766478  -31782.035898224978    1096.521404396556 
   36000   -5579.794245923233   -5579.794245923233   25071.116779261214  -31781.969358071412    1131.058332886958 
   37000   -5545.603095545888   -5545.603095545888   25168.351112196950  -31779.735039814557    1065.780832071717 
   38000   -5500.402147340843   -5500.402147340843   25257.513386990071  -31784.852156869245    1026.936622538329 
   39000   -5513.203504961930   -5513.203504961930   25157.514907738463  -31781.662569031818    1110.944156331427 
   40000   -5443.134696760160   -5443.134696760160   25304.167653689659  -31778.057911546428    1030.755561096607 
   41000   -5447.824969851416   -5447.824969851416   25254.564289692498  -31778.533314498676    1076.144054954764 
   42000   -5532.913195238980   -5532.913195238980   25127.554067636192  -31781.255209339899    1120.787946464722 
   43000   -5561.034500399492   -5561.034500399492   25112.749960878231  -31780.445716372840    1106.661255095115 
   44000   -5564.382614519815   -5564.382614519815   25091.838855262846  -31781.866789930526    1125.645320147869 
   45000   -5599.762132695334   -5599.762132695334   25090.649052178916  -31784.394116964646    1093.982932090397 
   46000   -5579.008825622113   -5579.008825622113   25076.625354187978  -31781.771961763541    1126.137781953450 
   47000   -5548.439309165507   -5548.439309165507   25084.385709729682  -31780.883110444618    1148.058091549429 
   48000   -5560.356734118443   -5560.356734118443   25119.088315904810  -31780.527448641373    1101.082398618123 
   49000   -5573.033105017850   -5573.033105017850   25097.427719798270  -31782.345517347640    1111.884692531520 
   50000   -5533.016191803090   -5533.016191803090   25131.381603263064  -31780.537674844436    1116.139879778279 
   51000   -5519.810650674139   -5519.810650674139   25194.394636073426  -31781.892286964561    1067.687000216993 
   52000   -5539.737120038462   -5539.737120038462   25123.621752673476  -31779.581393052929    1116.222520340990 
   53000   -5525.778672839526   -5525.778672839526   25136.814734714346  -31783.402906773390    1120.809499219514 
   54000   -5561.487501733031   -5561.487501733031   25146.762298605041  -31779.599271081628    1071.349470743558 
   55000   -5507.486385854118   -5507.486385854118   25212.970369092567  -31780.028396063604    1059.571641116918 
   56000   -5508.000022901648   -5508.000022901648   25175.232403210568  -31776.019198467700    1092.786772355488 
   57000   -5525.988408433863   -5525.988408433863   25131.802301184762  -31782.909479870028    1125.118770251403 
   58000   -5542.365234833622   -5542.365234833622   25176.034067931469  -31785.559654736750    1067.160351971660 
   59000   -5520.215039963587   -5520.215039963587   25176.655376161747  -31777.508005986856    1080.637589861519 
   60000   -5523.157613020612   -5523.157613020612   25212.007345510043  -31779.889518173815    1044.724559643160 
   61000   -5557.156443141655   -5557.156443141655   25126.284777356839  -31780.963120005061    1097.521899506567 
   62000   -5494.512152748870   -5494.512152748870   25195.300724476954  -31783.101048780813    1093.288171554985 
   63000   -5451.217040199244   -5451.217040199244   25347.514858000664  -31777.315273467339     978.583375267430 
   64000   -5489.624838680484   -5489.624838680484   25170.707732153060  -31779.557128094941    1119.224557261400 
   65000   -5472.008910083619   -5472.008910083619   25227.613281800812  -31782.778376127586    1083.156184243160 
   66000   -5471.586358191857   -5471.586358191857   25261.314191725112  -31781.606474865228    1048.705924948255 
   67000   -5521.347451813279   -5521.347451813279   25202.940539690513  -31780.155903086939    1055.867911583151 
   68000   -5539.222670178468   -5539.222670178468   25110.898152199108  -31778.356223581643    1128.235401204065 
   69000   -5522.478128177809   -5522.478128177809   25187.937823107844  -31779.274312148260    1068.858360862606 
   70000   -5474.299294539076   -5474.299294539076   25219.315955298956  -31778.731623108790    1085.116373270761 
   71000   -5510.255925895854   -5510.255925895854   25211.800208684734  -31781.811437527314    1059.755302946726 
   72000   -5546.217992421472   -5546.217992421472   25151.534265538427  -31781.437791975790    1083.685534015888 
   73000   -5533.116137608868   -5533.116137608868   25193.263739272061  -31781.175084273993    1054.795207393070 
   74000   -5512.375990814322   -5512.375990814322   25149.142730619162  -31775.450830450296    1113.932109016815 
   75000   -5525.442765065407   -5525.442765065407   25133.079645561033  -31782.239997564360    1123.717586937923 
   76000   -5552.051497152155   -5552.051497152155   25176.816031593618  -31777.678154937123    1048.810626191352 
   77000   -5568.525423865030   -5568.525423865030   25092.535422309164  -31780.565714626642    1119.504868452449 
   78000   -5528.279276337395   -5528.279276337395   25189.850720327369  -31783.039871012232    1064.909874347467 
   79000   -5549.311647355695   -5549.311647355695   25172.198083531523  -31779.560139649919    1058.050408762702 
   80000   -5420.200747549734   -5420.200747549734   25320.832520871212  -31774.665723653186    1033.632455232241 
   81000   -5474.256111306837   -5474.256111306837   25200.547062478392  -31783.600685802212    1108.797512016984 
   82000   -5509.608786801880   -5509.608786801880   25240.506042947571  -31777.703895343126    1027.589065593671 
   83000   -5441.220427055399   -5441.220427055399   25267.840363464184  -31778.656108631501    1069.595318111916 
   84000   -5481.440725555025   -5481.440725555025   25210.177553795678  -31781.502242383791    1089.883963033086 
   85000   -5529.903295044285   -5529.903295044285   25161.794864600230  -31783.486956185097    1091.788796540582 
   86000   -5565.155221690664   -5565.155221690664   25070.715378665365  -31782.339258330121    1146.468657974095 
   87000   -5485.688358380572   -5485.688358380572   25233.048068023447  -31776.362195139947    1057.625768735925 
   88000   -5540.180163442561   -5540.180163442561   25169.321727638489  -31781.276942265627    1071.775051184573 
   89000   -5515.294732841554   -5515.294732841554   25164.312366902064  -31780.557373411521    1100.950273667906 
   90000   -5456.226153958763   -5456.226153958763   25215.530258362181  -31778.727924958916    1106.971512637972 
   91000   -5533.631474443187   -5533.631474443187   25098.609701098208  -31778.786846047104    1146.545670505706 
   92000   -5554.635483102375   -5554.635483102375   25140.745427775997  -31783.749002061351    1088.368091182975 
   93000   -5528.013184821652   -5528.013184821652   25209.280954280086  -31783.171184347855    1045.877045246116 
   94000   -5476.465460790536   -5476.465460790536   25172.982536427669  -31776.846200415894    1127.398203197686 
   95000   -5499.205803575995   -5499.205803575995   25218.578169706630  -31777.762999618091    1059.979026335468 
   96000   -5488.146690835372   -5488.146690835372   25245.167229874292  -31780.380057446371    1047.066136736709 
   97000   -5479.905143978442   -5479.905143978442   25247.900745340128  -31781.407992440367    1053.602103121796 
   98000   -5471.291421848913   -5471.291421848913   25173.120784349652  -31779.886493557129    1135.474287358566 
   99000   -5545.992199386590   -5545.992199386590   25083.688539885494  -31780.841158496427    1151.160419224343 
  100000   -5579.873158709466   -5579.873158709466   25045.356482011230  -31781.248570460011    1156.018929739317 
  101000   -5534.723523653534   -5534.723523653534   25145.545899269961  -31778.816193627601    1098.546770704106 
  102000   -5491.118454776646   -5491.118454776646   25182.146910523908  -31779.696465833938    1106.431100533382 
  103000   -5512.405032651306   -5512.405032651306   25205.236540567203  -31778.380774104804    1060.739200886298 
  104000   -5505.505678415771   -5505.505678415771   25177.623123944537  -31779.168042594283    1096.039240233976 
  105000   -5525.099685665537   -5525.099685665537   25150.726384370319  -31781.333702309756    1105.507632273901 
  106000   -5633.390836540471   -5633.390836540471   25045.305049525436  -31782.319541083823    1103.623655017916 
  107000   -5524.451933924229   -5524.451933924229   25160.590885190424  -31780.689819313247    1095.647000198593 
  108000   -5549.120473277697   -5549.120473277697   25179.111320192635  -31782.209790133053    1053.977996662722 
  109000   -5546.547512914145   -5546.547512914145   25198.295585182012  -31782.563051300389    1037.719953204230 
  110000   -5514.222815751084   -5514.222815751084   25181.019181384851  -31781.205876087944    1085.963878952005 
  111000   -5469.526145519798   -5469.526145519798   25298.345715215706  -31780.018027537688    1012.146166802182 
  112000   -5541.059098090445   -5541.059098090445   25182.097606904390  -31782.476282301723    1059.319577306886 
  113000   -5476.118801967470   -5476.118801967470   25242.286368025379  -31778.393971734880    1059.988801742031 
  114000   -5551.049527071274   -5551.049527071274   25085.275483178269  -31784.622637172371    1148.297626922829 
  115000   -5524.857867058883   -5524.857867058883   25241.345290575715  -31780.669880876991    1014.466723242402 
  116000   -5545.846964821751   -5545.846964821751   25134.599324984221  -31783.795822638203    1103.349532832232 
  117000   -5542.695559126172   -5542.695559126172   25120.644933282711  -31781.908577581227    1118.568085172341 
  118000   -5552.896481185999   -5552.896481185999   25165.086960513934  -31785.564766521544    1067.581324821613 
  119000   -5532.715404375798   -5532.715404375798   25257.068268684365  -31778.448110152098     988.664437091939 
  120000   -5515.946725906502   -5515.946725906502   25156.114080988031  -31785.505851653401    1113.445044758873 
  121000   -5502.415184590416   -5502.415184590416   25229.457799941181  -31784.422008052006    1052.549023520412 
  122000   -5506.125425877472   -5506.125425877472   25219.254260083551  -31780.240381607524    1054.860695646506 
  123000   -5541.189350207533   -5541.189350207533   25144.064549005994  -31781.974518691233    1096.720619477709 
  124000   -5506.131657642505   -5506.131657642505   25182.957631844707  -31778.004170398413    1088.914880911198 
  125000   -5490.961948401269   -5490.961948401269   25235.329766166349  -31781.261588744826    1054.969874177208 
  126000   -5547.323696811600   -5547.323696811600   25145.928541554924  -31780.504074962988    1087.251836596464 
  127000   -5547.870605841224   -5547.870605841224   25157.630074101311  -31779.420529970514    1073.919850027976 
  128000   -5496.808318159699   -5496.808318159699   25204.763211637764  -31779.923846893482    1078.352317096018 
  129000   -5493.431881453100   -5493.431881453100   25215.645220022343  -31776.575296983305    1067.498195507864 
  130000   -5538.925948223536   -5538.925948223536   25227.831149244972  -31783.817988940522    1017.060891472017 
  131000   -5556.375963303621   -5556.375963303621   25103.465862192330  -31781.689188940039    1121.847363444085 
  132000   -5519.922720143233   -5519.922720143233   25209.691880628317  -31778.360509867423    1048.745909095872 
  133000   -5495.214189401406   -5495.214189401406   25234.292700682745  -31780.326986880445    1050.820096796298 
  134000   -5564.928457463593   -5564.928457463593   25130.433267454246  -31783.020029863237    1087.658304945397 
  135000   -5588.558056704958   -5588.558056704958   25030.514884813834  -31783.506964432021    1164.434022913231 
  136000   -5531.417043492314   -5531.417043492314   25140.515449273527  -31780.195530052726    1108.263037286879 
  137000   -5583.861409606499   -5583.861409606499   25135.457578123860  -31779.032259446885    1059.713271716530 
  138000   -5541.492303880324   -5541.492303880324   25162.534091276808  -31782.844531876508    1078.818136719376 
  139000   -5518.113855315434   -5518.113855315434   25148.661930512870  -31776.668927378498    1109.893141550194 
  140000   -5520.068766357737   -5520.068766357737   25139.531604507407  -31779.747079924553    1120.146709059406 
  141000   -5514.278250962579   -5514.278250962579   25149.416314724738  -31777.910704891114    1114.216139203801 
  142000   -5512.858252613838   -5512.858252613838   25141.186432799746  -31781.041482962923    1126.996797549338 
  143000   -5544.442703445289   -5544.442703445289   25147.909797661763  -31780.276939511510    1087.924438404462 
  144000   -5448.824834867315   -5448.824834867315   25281.309754364192  -31781.908732099939    1051.774142868434 
  145000   -5547.460936273921   -5547.460936273921   25159.668442239563  -31785.498944764779    1078.369566251293 
  146000   -5450.054467500468   -5450.054467500468   25277.131411606249  -31781.188878072400    1054.002998965685 
  147000   -5539.205356453527   -5539.205356453527   25159.328792422424  -31781.687150113965    1083.153001238011 
  148000   -5584.622005608486   -5584.622005608486   25092.282720440024  -31782.195261547276    1105.290535498772 
  149000   -5518.819752242660   -5518.819752242660   25154.352315347060  -31779.296207572173    1106.124139982451 
  150000   -5517.529267306167   -5517.529267306167   25116.932677364439  -31780.784761724924    1146.322817054318 
  151000   -5540.073943962940   -5540.073943962940   25198.176143948054  -31777.609779667269    1039.359691756272 
  152000   -5525.417809082293   -5525.417809082293   25160.550767185709  -31777.080584430158    1091.112008162153 
  153000   -5529.242161803490   -5529.242161803490   25125.875990068002  -31778.052160447642    1122.934008576148 
  154000   -5547.022616413382   -5547.022616413382   25129.235508089972  -31778.079185318205    1101.821060814854 
  155000   -5550.594109215090   -5550.594109215090   25121.558290503148  -31779.737191611748    1107.584791893506 
  156000   -5484.908679064010   -5484.908679064010   25239.073061520270  -31778.892146656082    1054.910406071806 
  157000   -5510.609540186371   -5510.609540186371   25147.735859343407  -31776.994337618838    1118.648938089058 
  158000   -5638.251174104902   -5638.251174104902   25016.410166818569  -31783.487975180018    1128.826634256543 
  159000   -5491.665155168903   -5491.665155168903   25230.010655611411  -31780.053011065556    1058.377200285244 
  160000   -5505.043907110841   -5505.043907110841   25181.198783573105  -31782.676365614963    1096.433674931018 
  161000   -5491.746214769049   -5491.746214769049   25220.470841542101  -31780.594444624428    1068.377388313277 
  162000   -5511.392202342300   -5511.392202342300   25148.141961290028  -31775.154980439933    1115.620816807605 
  163000   -5567.973396862068   -5567.973396862068   25145.731381838399  -31779.200859158165    1065.496080457701 
  164000   -5590.985960479291   -5590.985960479291   25063.015271440810  -31780.128506841796    1126.127274921695 
  165000   -5543.257922299759   -5543.257922299759   25155.532036007135  -31778.045177907799    1079.255219600907 
  166000   -5532.087684781724   -5532.087684781724   25174.829851001781  -31779.002816993579    1072.085281210071 
  167000   -5516.061299856756   -5516.061299856756   25262.968337365899  -31780.200886604314    1001.171249381661 
  168000   -5563.175827289811   -5563.175827289811   25150.037173110089  -31783.251226821925    1070.038226422024 
  169000   -5526.870467639459   -5526.870467639459   25227.246030423474  -31779.185546881221    1025.069048818290 
  170000   -5487.954295712942   -5487.954295712942   25204.866293302643  -31780.669519925748    1087.848930910166 
  171000   -5491.467998955948   -5491.467998955948   25229.499668100339  -31780.752805285705    1059.785138229420 
  172000   -5464.580098533552   -5464.580098533552   25188.586380535118  -31774.572240861427    1121.405761792759 
  173000   -5514.196580950997   -5514.196580950997   25185.548656967945  -31779.973996106546    1080.228758187602 
  174000   -5490.075049988925   -5490.075049988925   25265.861366336692  -31778.876382884300    1022.939966558683 
  175000   -5501.774281581263   -5501.774281581263   25208.043304285638  -31781.682608072395    1071.865022205493 
  176000   -5513.481501532082   -5513.481501532082   25163.337581149666  -31779.238858648729    1102.419775966979 
  177000   -5523.800493299972   -5523.800493299972   25189.271141313024  -31779.033544432259    1065.961909819270 
  178000   -5442.058727261778   -5442.058727261778   25261.578472316563  -31775.614685265471    1071.977485687127 
  179000   -5504.664044277208   -5504.664044277208   25173.144595181166  -31781.169509483028    1103.360870024656 
  180000   -5484.249497774665   -5484.249497774665   25197.743643170605  -31778.373340466431    1096.380199521159 
  181000   -5524.487104935557   -5524.487104935557   25141.811340234941  -31782.946152605389    1116.647707434889 
  182000   -5469.697406191037   -5469.697406191037   25179.980284467383  -31778.118576026023    1128.440885367605 
  183000   -5516.861495398425   -5516.861495398425   25189.080170009540  -31779.778414055090    1073.836748647130 
  184000   -5467.093120807513   -5467.093120807513   25281.590112328682  -31774.168336060091    1025.485102923895 
  185000   -5499.957092627465   -5499.957092627465   25184.414987775723  -31778.994717565376    1094.622637162189 
  186000   -5473.868498967153   -5473.868498967153   25197.650134315110  -31781.733400108449    1110.214766826185 
  187000   -5510.901473833921   -5510.901473833921   25198.758147726330  -31782.522832019498    1072.863210459247 
  188000   -5512.554883748246   -5512.554883748246   25165.059159604942  -31778.019463816097    1100.405420462909 
  189000   -5546.214244392224   -5546.214244392224   25138.754438766420  -31781.686023791834    1096.717340633184 
  190000   -5503.691286914422   -5503.691286914422   25239.923330451504  -31782.003152068348    1038.388534702419 
  191000   -5550.668531479438   -5550.668531479438   25177.559139725839  -31779.835280447976    1051.607609242704 
  192000   -5491.606191156465   -5491.606191156465   25223.753397590084  -31781.863365979192    1066.503777232641 
  193000   -5479.936636066737   -5479.936636066737   25201.588930295173  -31782.858684169467    1101.333117807559 
  194000   -5618.739312869402   -5618.739312869402   25009.013363252674  -31782.857945287062    1155.105269164987 
  195000   -5541.109250935675   -5541.109250935675   25115.885992693406  -31781.932138260494    1124.936894631411 
  196000   -5549.712374158269   -5549.712374158269   25148.248117870760  -31781.194793973649    1083.234301944616 
  197000   -5490.093162597950   -5490.093162597950   25175.716519897414  -31776.145524670337    1110.335842174974 
  198000   -5485.322853054680   -5485.322853054680   25304.798262991011  -31779.436073129062     989.314957083370 
  199000   -5467.842593067402   -5467.842593067402   25264.348164252478  -31778.664409897992    1046.473652578115 
  200000   -5522.276942203320   -5522.276942203320   25192.946532311016  -31782.905102606001    1067.681628091664 
  201000   -5500.426754123320   -5500.426754123320   25151.524689281265  -31779.136820639811    1127.185377235227 
  202000   -5527.535624496380   -5527.535624496380   25134.245423372129  -31779.658427885315    1117.877380016803 
  203000   -5485.854579577110   -5485.854579577110   25194.628643585340  -31782.963639165839    1102.480416003388 
  204000   -5470.311515529906   -5470.311515529906   25265.468771410291  -31777.066869335209    1041.286582395010 
  205000   -5575.504124242900   -5575.504124242900   25085.472192841880  -31784.681509162954    1123.705192078170 
  206000   -5531.361941930270   -5531.361941930270   25128.100924225357  -31780.898480970642    1121.435614815014 
  207000   -5573.820059699676   -5573.820059699676   25123.501875109057  -31781.414115213967    1084.092180405236 
  208000   -5543.618437375455   -5543.618437375455   25125.893008607767  -31780.836275561036    1111.324829577818 
  209000   -5528.619672585941   -5528.619672585941   25146.407172903433  -31778.468600605869    1103.441755116498 
  210000   -5468.541997380300   -5468.541997380300   25231.299393663579  -31781.062585418906    1081.221194375022 
  211000   -5521.437928830539   -5521.437928830539   25184.104226784373  -31779.573444831054    1074.031289216147 
  212000   -5482.397399832742   -5482.397399832742   25323.733238651115  -31780.145989912162     974.015351428305 
  213000   -5563.901434170504   -5563.901434170504   25134.658254598835  -31782.610862441965    1084.051173672626 
  214000   -5532.327642476794   -5532.327642476794   25188.331386033642  -31782.620097282746    1061.961068772313 
  215000   -5479.265578994731   -5479.265578994731   25228.290847193388  -31782.246177009194    1074.689750821080 
  216000   -5528.495290055289   -5528.495290055289   25185.704709982845  -31786.879835775559    1072.679835737427 
  217000   -5454.830367745380   -5454.830367745380   25230.623099057506  -31778.491693244931    1093.038226442043 
  218000   -5553.540529262606   -5553.540529262606   25156.728815832837  -31782.390278029608    1072.120932934165 
  219000   -5463.359605678739   -5463.359605678739   25314.176990036969  -31780.086381674995    1002.549785959289 
  220000   -5539.135386160251   -5539.135386160251   25119.926458232188  -31784.267622573821    1125.205778181380 
  221000   -5555.057630640516   -5555.057630640516   25200.773862702419  -31783.834737573248    1028.003244230310 
  222000   -5504.870676955346   -5504.870676955346   25187.787378204630  -31779.193188680380    1086.535133520402 
  223000   -5539.523614624017   -5539.523614624017   25219.573650538427  -31786.219873934304    1027.122608771865 
  224000   -5554.984474661051   -5554.984474661051   25127.098476460342  -31783.059179851422    1100.976228730028 
  225000   -5557.179629002436   -5557.179629002436   25155.151002256538  -31777.584782481550    1065.254151222578 
  226000   -5509.525626722756   -5509.525626722756   25199.738571006001  -31780.558701769045    1071.294504040287 
  227000   -5543.182721166024   -5543.182721166024   25154.688545825033  -31784.026479840166    1086.155212849109 
  228000   -5561.848400599814   -5561.848400599814   25070.402363074012  -31781.958060003475    1149.707296329645 
  229000   -5517.222035476480   -5517.222035476480   25147.839939338955  -31779.244684461395    1114.182709645961 
  230000   -5533.096854635416   -5533.096854635416   25189.562430792346  -31781.435008206321    1058.775722778560 
  231000   -5526.692822705740   -5526.692822705740   25103.142815859275  -31780.934805486024    1151.099166921009 
  232000   -5501.016925002099   -5501.016925002099   25185.651629105265  -31782.709103906313    1096.040549798952 
  233000   -5553.939900892936   -5553.939900892936   25118.285935031403  -31779.140978534539    1106.915142610203 
  234000   -5559.826505920537   -5559.826505920537   25093.104121530632  -31776.676981018205    1123.746353567036 
  235000   -5492.012100495172   -5492.012100495172   25257.994584019696  -31783.617075768645    1033.610391253775 
  236000   -5514.738616557115   -5514.738616557115   25234.512695431749  -31778.248858180512    1028.997546191644 
  237000   -5502.605325107717   -5502.605325107717   25226.560479453652  -31782.774155122577    1053.608350561211 
  238000   -5512.466828420474   -5512.466828420474   25211.734382427283  -31781.677371798476    1057.476160950716 
  239000   -5548.262432091320   -5548.262432091320   25145.166444881201  -31779.581197533134    1086.152320560615 
  240000   -5504.312685860805   -5504.312685860805   25279.542037826483  -31781.268925595428     997.414201908141 
  241000   -5528.649219304003   -5528.649219304003   25202.133037998996  -31781.628150522687    1050.845893219689 
  242000   -5553.104972702997   -5553.104972702997   25157.024071706903  -31779.093347016165    1068.964302606262 
  243000   -5528.579897713244   -5528.579897713244   25241.073290494518  -31782.679288871470    1013.026100663706 
  244000   -5477.861230426613   -5477.861230426613   25240.199675763528  -31776.426524514864    1058.365618324726 
  245000   -5497.155286260644   -5497.155286260644   25219.083923125108  -31779.645980886318    1063.406771500565 
  246000   -5566.399071498592   -5566.399071498592   25013.283472823961  -31779.632268149893    1199.949723827340 
  247000   -5548.878044319703   -5548.878044319703   25149.348532732656  -31781.736942497195    1083.510365444836 
  248000   -5525.609779203962   -5525.609779203962   25159.006863563700  -31785.808130803609    1101.191488035947 
  249000   -5559.197902953612   -5559.197902953612   25116.312218464918  -31779.792301218204    1104.282179799672 
  250000   -5539.037774042656   -5539.037774042656   25116.866972921816  -31780.427681881174    1124.522934916700 
  251000   -5492.422382074215   -5492.422382074215   25223.906203159451  -31775.091270588051    1058.762685354380 
  252000   -5504.537483084976   -5504.537483084976   25172.685763717680  -31778.567477663080    1101.344230860429 
  253000   -5488.509970675175   -5488.509970675175   25223.456267858157  -31782.082182142545    1070.115943609210 
  254000   -5460.172073208800   -5460.172073208800   25192.660408561198  -31775.281848971154    1122.449367201153 
  255000   -5520.878981788206   -5520.878981788206   25175.647345156300  -31783.579945142134    1087.053618197631 
  256000   -5512.934110149730   -5512.934110149730   25228.906182345017  -31777.455071889737    1035.614779394990 
  257000   -5494.563963744353   -5494.563963744353   25186.049290877534  -31778.628802206706    1098.015547584817 
  258000   -5510.412786768604   -5510.412786768604   25089.402440135731  -31776.928342754662    1177.113115850320 
  259000   -5482.770665366636   -5482.770665366636   25154.130993617386  -31778.275963464752    1141.374304480734 
  260000   -5558.480626417720   -5558.480626417720   25068.770791474431  -31781.056118381166    1153.804700489013 
  261000   -5539.360752555200   -5539.360752555200   25125.093767355564  -31781.592310415275    1117.137790504513 
  262000   -5559.316960808541   -5559.316960808541   25103.960660391225  -31775.557147463038    1112.279526263274 
  263000   -5541.845204441241   -5541.845204441241   25151.325613822468  -31781.603805135219    1088.432986871510 
  264000   -5534.203235651552   -5534.203235651552   25145.449778592374  -31777.378259299763    1097.725245055844 
  265000   -5496.124225386346   -5496.124225386346   25133.082886242348  -31776.798447419958    1147.591335791258 
  266000   -5538.488423848044   -5538.488423848044   25142.431201095736  -31780.510974597622    1099.591349653840 
  267000   -5521.554134527920   -5521.554134527920   25140.413677061661  -31777.604768245088    1115.636956655501 
  268000   -5498.143579525175   -5498.143579525175   25135.388153291817  -31778.096289453835    1144.564556636844 
  269000   -5500.605936195218   -5500.605936195218   25196.936060651497  -31779.907729280352    1082.365732433640 
  270000   -5534.367469472912   -5534.367469472912   25140.635747144483  -31775.160645463722    1100.157428846326 
  271000   -5509.070487631543   -5509.070487631543   25154.298860973908  -31780.325155145729    1116.955806540278 
  272000   -5568.417517298760   -5568.417517298760   25112.693419363208  -31781.135583597028    1100.024646935061 
  273000   -5492.572551011654   -5492.572551011654   25106.813636983519  -31780.527205323648    1181.141017328472 
  274000   -5556.124838077300   -5556.124838077300   25095.824242263927  -31778.107946970849    1126.158866629626 
  275000   -5525.608642333318   -5525.608642333318   25123.475161839451  -31782.560365776484    1133.476561603720 
  276000   -5531.602558223374   -5531.602558223374   25210.314712069539  -31779.626267721058    1037.708997428145 
  277000   -5515.319367801716   -5515.319367801716   25190.981262741047  -31781.437986625981    1075.137356083216 
  278000   -5537.363761065517   -5537.363761065517   25150.528176053514  -31783.619534561181    1095.727597442147 
  279000   -5615.111188733015   -5615.111188733015   25042.030122908065  -31780.225592080988    1123.084280439906 
  280000   -5515.978700324376   -5515.978700324376   25215.844033163041  -31779.115458158030    1047.292724670609 
  281000   -5513.011476537245   -5513.011476537245   25153.283309462222  -31782.060408495054    1115.765622495586 
  282000   -5528.676619357950   -5528.676619357950   25130.986776695478  -31780.870894294178    1121.207498240753 
  283000   -5512.312591867827   -5512.312591867827   25184.460482676215  -31783.953042478810    1087.179967934769 
  284000   -5497.282583389650   -5497.282583389650   25257.726473777111  -31783.996750448710    1028.987693281949 
  285000   -5436.345962680938   -5436.345962680938   25181.269496623154  -31781.138604050349    1163.523144746261 
  286000   -5535.401381546606   -5535.401381546606   25127.613251193376  -31777.937167063574    1114.922534323589 
  287000   -5520.718002610989   -5520.718002610989   25223.520655704346  -31782.020122141636    1037.781463826298 
  288000   -5534.295469988010   -5534.295469988010   25124.755842591021  -31780.619919667468    1121.568607088436 
  289000   -5473.859923099306   -5473.859923099306   25230.770235156295  -31778.859046350808    1074.228888095202 
  290000   -5525.391392821606   -5525.391392821606   25133.295647335523  -31786.666257297322    1127.979217140198 
  291000   -5498.858624717814   -5498.858624717814   25229.941493682956  -31777.199871820430    1048.399753419656 
  292000   -5490.653241722706   -5490.653241722706   25230.510286832665  -31778.939701876552    1057.776173321180 
  293000   -5522.834977385020   -5522.834977385020   25167.182045848800  -31784.356867015034    1094.339843781212 
  294000   -5483.960691532902   -5483.960691532902   25161.860188800783  -31781.884483907019    1136.063603573331 
  295000   -5530.436633795794   -5530.436633795794   25148.988825783479  -31776.623659746227    1097.198200166956 
  296000   -5489.911825275918   -5489.911825275918   25229.860993495815  -31780.935447351523    1061.162628579788 
  297000   -5522.381749511878   -5522.381749511878   25141.301040459530  -31778.544672628290    1114.861882656878 
  298000   -5584.773967166315   -5584.773967166315   25119.593465309292  -31781.856917020232    1077.489484544625 
  299000   -5558.393724691097   -5558.393724691097   25089.721792163618  -31785.018370308371    1136.902853453654 
  300000   -5488.670498267777   -5488.670498267777   25235.945863847479  -31776.406030978149    1051.789668862895 
  301000   -5502.381842125811   -5502.381842125811   25172.781734240903  -31777.319082371105    1102.155506004396 
  302000   -5526.088645135580   -5526.088645135580   25131.371153481610  -31780.142403625170    1122.682605007981 
  303000   -5555.885462943508   -5555.885462943508   25134.239682521536  -31780.508962521628    1090.383817056584 
  304000   -5526.043991385704   -5526.043991385704   25137.618316401255  -31782.913973503622    1119.251665716667 
  305000   -5579.677044525222   -5579.677044525222   25073.210384589263  -31783.565601913186    1130.678172798702 
  306000   -5527.259323281491   -5527.259323281491   25154.026838060265  -31784.557332877877    1103.271171536123 
  307000   -5513.584581887459   -5513.584581887459   25149.181734426526  -31782.443984908256    1119.677668594269 
  308000   -5488.205863384002   -5488.205863384002   25204.654154011387  -31777.227509333199    1084.367491937806 
  309000   -5493.459235535320   -5493.459235535320   25237.647947178757  -31777.760203806567    1046.653021092490 
  310000   -5567.539067601145   -5567.539067601145   25089.682595863189  -31781.713197546007    1124.491534081672 
  311000   -5506.181984180890   -5506.181984180890   25158.180072023875  -31778.224679017025    1113.862622812261 
  312000   -5516.138711646490   -5516.138711646490   25179.075782503463  -31776.891110440331    1081.676616290379 
  313000   -5518.167895378298   -5518.167895378298   25223.318691955159  -31779.713870627180    1038.227283293725 
  314000   -5495.533780447258   -5495.533780447258   25176.806026186823  -31780.374382874215    1108.034576240130 
  315000   -5514.872854316822   -5514.872854316822   25163.230516811283  -31784.803280854074    1106.699909725965 
  316000   -5533.822163977875   -5533.822163977875   25152.125933113995  -31777.932572144604    1091.984475052736 
  317000   -5496.131293620179   -5496.131293620179   25229.853105590068  -31780.480038268015    1054.495639057767 
  318000   -5540.286616925197   -5540.286616925197   25197.176067192377  -31781.254548531040    1043.791864413468 
  319000   -5503.955306206648   -5503.955306206648   25164.624300564770  -31781.555358727859    1112.975751956441 
  320000   -5479.461550270200   -5479.461550270200   25256.315653180460  -31783.852545267120    1048.075341816462 
  321000   -5474.090949950507   -5474.090949950507   25149.824002195168  -31779.933899893265    1156.018947747595 
  322000   -5491.254200140149   -5491.254200140149   25180.770945365082  -31780.869128508206    1108.843983002975 
  323000   -5511.254292366571   -5511.254292366571   25193.583077771036  -31784.675793054150    1079.838422916541 
  324000   -5485.925477841010   -5485.925477841010   25163.453073232798  -31777.638105124744    1128.259554050937 
  325000   -5528.214614927216   -5528.214614927216   25167.766616592009  -31783.870725755558    1087.889494236332 
  326000   -5574.719100295224   -5574.719100295224   25066.014376729654  -31782.578689199872    1141.845212174995 
  327000   -5544.298177029592   -5544.298177029592   25053.416566128748  -31777.498341615428    1179.783598457091 
  328000   -5495.397840387803   -5495.397840387803   25185.265080632602  -31775.910259665336    1095.247338644929 
  329000   -5482.128125965581   -5482.128125965581   25184.202036765710  -31779.316394471454    1112.986231740162 
  330000   -5458.914481910666   -5458.914481910666   25279.821726319868  -31780.345946105277    1041.609737874740 
  331000   -5551.493641143887   -5551.493641143887   25110.106512508370  -31781.531585737295    1119.931432085044 
  332000   -5553.298361389141   -5553.298361389141   25084.421432665229  -31779.566844204459    1141.847050150090 
  333000   -5552.553444064844   -5552.553444064844   25098.556435582948  -31780.413375115026    1129.303495467229 
  334000   -5482.226842796670   -5482.226842796670   25224.015092775939  -31780.877350729363    1074.635415156752 
  335000   -5491.978819425458   -5491.978819425458   25154.303141519838  -31777.624364515010    1131.342403569715 
  336000   -5561.553859914806   -5561.553859914806   25092.403235129568  -31779.900571615453    1125.943476571080 
  337000   -5476.647428888744   -5476.647428888744   25193.623806615666  -31774.719742646503    1104.448507142097 
  338000   -5533.600572805073   -5533.600572805073   25107.210661124576  -31781.563865762786    1140.752631833137 
  339000   -5559.985320130832   -5559.985320130832   25146.955622131700  -31778.872792925820    1071.931850663286 
  340000   -5486.094016853291   -5486.094016853291   25164.063939929907  -31777.730892155319    1127.572935372119 
  341000   -5551.273844846735   -5551.273844846735   25073.367826778158  -31778.711385530118    1154.069713905220 
  342000   -5587.210150158964   -5587.210150158964   25012.990002891420  -31776.042776450096    1175.842623399716 
  343000   -5586.020502561922   -5586.020502561922   25042.364558207250  -31786.369186664608    1157.984125895435 
  344000   -5487.458279769202   -5487.458279769202   25188.091366464210  -31778.003303049842    1102.453656816434 
  345000   -5533.598124987468   -5533.598124987468   25160.581682898603  -31774.678793975087    1080.498986089019 
  346000   -5529.826011506913   -5529.826011506913   25136.213859764684  -31781.240831642492    1115.200960370890 
  347000   -5585.028641422155   -5585.028641422155   25077.403138682530  -31780.592319816202    1118.160539711516 
  348000   -5508.325090658363   -5508.325090658363   25148.809034803598  -31778.014974050086    1120.880848588118 
  349000   -5514.570839753553   -5514.570839753553   25227.816389588126  -31782.733750466869    1040.346521125186 
  350000   -5399.957803291531   -5399.957803291531   25354.157168814912  -31775.902713098811    1021.787740992366 
  351000   -5517.309819164144   -5517.309819164144   25146.286505796772  -31783.258669621711    1119.662344660797 
  352000   -5443.298630218229   -5443.298630218229   25242.035943068782  -31777.240716382465    1091.906143095452 
  353000   -5547.938053792990   -5547.938053792990   25138.331210434757  -31781.934623955356    1095.665359727606 
  354000   -5504.700697065735   -5504.700697065735   25128.360135267274  -31779.236202544711    1146.175370211705 
  355000   -5520.337115483977   -5520.337115483977   25111.821621499737  -31779.243957852508    1147.085220868795 
  356000   -5526.749979158038   -5526.749979158038   25050.258948801966  -31779.360453693411    1202.351525733406 
  357000   -5529.628023703721   -5529.628023703721   25148.495554895184  -31782.945653635274    1104.822075036370 
  358000   -5507.756879567587   -5507.756879567587   25185.826990966962  -31781.444833158097    1087.860962623547 
  359000   -5558.679389560839   -5558.679389560839   25061.779848376820  -31782.634391049458    1162.175153111799 
  360000   -5535.085550509331   -5535.085550509331   25125.684608681840  -31783.460936593339    1122.690777402168 
  361000   -5476.511949259057   -5476.511949259057   25159.037554276023  -31779.644256588363    1144.094753053281 
  362000   -5543.294007400269   -5543.294007400269   25096.636219702494  -31779.864049494528    1139.933822391764 
  363000   -5541.752846755790   -5541.752846755790   25120.613751437610  -31781.599486654541    1119.232888461145 
  364000   -5531.939637089388   -5531.939637089388   25200.207313050927  -31779.330449118086    1047.183498977774 
  365000   -5613.416764116737   -5613.416764116737   25011.205220106051  -31784.452167820262    1159.830183597470 
  366000   -5578.645438041491   -5578.645438041491   25076.371675391041  -31781.134905283889    1126.117791851356 
  367000   -5475.073518245921   -5475.073518245921   25277.756113475021  -31781.571866980550    1028.742235259609 
  368000   -5505.332352295994   -5505.332352295994   25225.884610333025  -31777.866056943571    1046.649094314547 
  369000   -5559.759620769881   -5559.759620769881   25086.682895314865  -31782.338085255888    1135.895569171144 
  370000   -5513.127200197439   -5513.127200197439   25213.506915557908  -31781.371181843442    1054.737066088091 
  371000   -5535.629737953401   -5535.629737953401   25167.333004701170  -31778.010330489895    1075.047587835325 
  372000   -5537.290363360498   -5537.290363360498   25119.134984862183  -31776.198492271429    1119.773144048752 
  373000   -5530.258961805117   -5530.258961805117   25150.025749564527  -31780.559634490124    1100.274923120480 
  374000   -5510.203946665817   -5510.203946665817   25161.664057982805  -31779.604608350339    1107.736603701722 
  375000   -5441.830248875805   -5441.830248875805   25302.366921228509  -31776.274153550425    1032.076983446110 
  376000   -5515.571591186621   -5515.571591186621   25180.072718311756  -31779.669588193799    1084.025278695419 
  377000   -5513.916394512460   -5513.916394512460   25124.416764220012  -31777.917516318503    1139.584357586036 
  378000   -5547.891277269857   -5547.891277269857   25143.262136664482  -31780.855443412689    1089.702029478347 
  379000   -5526.857216773056   -5526.857216773056   25131.271147304033  -31775.011305844728    1116.882941767637 
  380000   -5456.203055336475   -5456.203055336475   25251.762204491319  -31778.097265090735    1070.132005262945 
  381000   -5525.158559367344   -5525.158559367344   25223.199200343057  -31781.054122198249    1032.696362487848 
  382000   -5517.778739726127   -5517.778739726127   25144.788723628717  -31776.672482243401    1114.105018888556 
  383000   -5524.947153605626   -5524.947153605626   25138.450118579480  -31782.526713485160    1119.129441300056 
  384000   -5547.148182557223   -5547.148182557223   25102.715754259287  -31776.357536970670    1126.493600154161 
  385000   -5545.113015187566   -5545.113015187566   25118.640914990079  -31780.299563528435    1116.545633350787 
  386000   -5475.149418241552   -5475.149418241552   25168.083822242585  -31775.931622914137    1132.698382429999 
  387000   -5484.625332231662   -5484.625332231662   25122.231380701051  -31777.225419142629    1170.368706209919 
  388000   -5502.173747957939   -5502.173747957939   25157.661727802137  -31784.659971759138    1124.824495999070 
  389000   -5518.089037865051   -5518.089037865051   25220.794956427446  -31784.872770013128    1045.988775720634 
  390000   -5563.395104696316   -5563.395104696316   25064.220089453171  -31783.433126444430    1155.817932294946 
  391000   -5520.749345630913   -5520.749345630913   25169.148422190283  -31780.718746297065    1090.820978475871 
  392000   -5514.776112379863   -5514.776112379863   25159.552349345391  -31781.723883790572    1107.395422065319 
  393000   -5511.854279059720   -5511.854279059720   25199.653137625148  -31775.098635171787    1063.591218486922 
  394000   -5505.985861864880   -5505.985861864880   25160.917240392038  -31776.784746857869    1109.881644600953 
  395000   -5495.227710766692   -5495.227710766692   25149.788522449518  -31780.902327410440    1135.886094194233 
  396000   -5518.188683147946   -5518.188683147946   25167.610993277063  -31781.774499076619    1095.974822651605 
  397000   -5551.322443667246   -5551.322443667246   25181.857461370593  -31782.998245658233    1049.818340620397 
  398000   -5517.166231623192   -5517.166231623192   25170.226233550988  -31784.767767253765    1097.375302079586 
  399000   -5539.186767594485   -5539.186767594485   25219.740649955431  -31781.494144687709    1022.566727137792 
  400000   -5486.911759209281   -5486.911759209281   25235.599834831773  -31777.711115856193    1055.199521815141 
  401000   -5488.333856126828   -5488.333856126828   25224.352920618054  -31783.441783882172    1070.755007137288 
  402000   -5481.288082462284   -5481.288082462284   25259.552699719443  -31777.105968737800    1036.265186556073 
  403000   -5523.605772603016   -5523.605772603016   25135.876704966624  -31777.247958083761    1117.765480514122 
  404000   -5557.681676402470   -5557.681676402470   25082.979161045347  -31782.098797868472    1141.437960420653 
  405000   -5553.511434448359   -5553.511434448359   25122.585679219861  -31775.279429150003    1099.182315481784 
  406000   -5515.378756201568   -5515.378756201568   25174.828326221643  -31781.106662994905    1090.899580571695 
  407000   -5449.293896747276   -5449.293896747276   25186.461707559814  -31779.125909911800    1143.370305604706 
  408000   -5464.958134151162   -5464.958134151162   25202.696985795916  -31780.543862189599    1112.888742242523 
  409000   -5543.715102667862   -5543.715102667862   25066.021779639610  -31782.644523352654    1172.907641045178 
  410000   -5522.813760938589   -5522.813760938589   25185.130270463174  -31778.262513101923    1070.318481700161 
  411000   -5562.258958357470   -5562.258958357470   25073.885068385640  -31782.960120602966    1146.816093859855 
  412000   -5500.374337893201   -5500.374337893201   25162.084219745331  -31782.775277159846    1120.316719521311 
  413000   -5513.576485300615   -5513.576485300615   25126.309238654889  -31778.504682442293    1138.618958486791 
  414000   -5561.660964175484   -5561.660964175484   25100.011791216086  -31779.771911918549    1118.099156526979 
  415000   -5529.062603070255   -5529.062603070255   25120.354887673078  -31782.793068197934    1133.375577454597 
  416000   -5558.174636415039   -5558.174636415039   25082.600817303919  -31786.338511604783    1145.563057885827 
  417000   -5492.575655126664   -5492.575655126664   25251.589613146785  -31782.493354033653    1038.328085760206 
  418000   -5485.448731743320   -5485.448731743320   25273.015192050050  -31784.500419769120    1026.036495975752 
  419000   -5504.873418225201   -5504.873418225201   25200.594708824683  -31778.154249161191    1072.686122111310 
  420000   -5504.048386779697   -5504.048386779697   25165.025706999062  -31780.924661171790    1111.850567393026 
  421000   -5453.628727227449   -5453.628727227449   25321.556922276417  -31775.230418576117    1000.044769072252 
  422000   -5528.337839346423   -5528.337839346423   25166.513886628087  -31780.234892200082    1085.383166225570 
  423000   -5467.932958168349   -5467.932958168349   25239.885153440748  -31777.853949857428    1070.035838248331 
  424000   -5543.939395653335   -5543.939395653335   25156.113534526496  -31781.112855830710    1081.059925650879 
  425000   -5577.958037442673   -5577.958037442673   25187.744264455705  -31785.569493874038    1019.867191975658 
  426000   -5578.240126082172   -5578.240126082172   25138.341119494740  -31784.815140188311    1068.233894611401 
  427000   -5516.872220462956   -5516.872220462956   25105.855625118798  -31780.073862439680    1157.346016857929 
  428000   -5543.703011785605   -5543.703011785605   25138.812875513147  -31781.129651866824    1098.613764568073 
  429000   -5501.961902546103   -5501.961902546103   25139.570878487524  -31780.918128793361    1139.385347759736 
  430000   -5494.436893046564   -5494.436893046564   25164.723056740826  -31782.612104105905    1123.452154318514 
  431000   -5525.635501284836   -5525.635501284836   25205.164156071514  -31780.852575835372    1050.052918479018 
  432000   -5535.662428383122   -5535.662428383122   25073.329912770194  -31780.192252927223    1171.199911773908 
  433000   -5509.619799584798   -5509.619799584798   25200.199802946368  -31782.281101735898    1072.461499204736 
  434000   -5476.260461084756   -5476.260461084756   25261.516186690722  -31777.520337167847    1039.743689392375 
  435000   -5487.070092821901   -5487.070092821901   25251.201923418121  -31778.698474506768    1040.426458266743 
  436000   -5478.244665136372   -5478.244665136372   25173.947187657850  -31777.110995648789    1124.919142854568 
  437000   -5555.322422897629   -5555.322422897629   25174.054118301035  -31782.110881345707    1052.734340147045 
  438000   -5555.070192353676   -5555.070192353676   25063.708245141745  -31780.980761892461    1162.202324397038 
  439000   -5570.975028620487   -5570.975028620487   25079.391818175049  -31781.932637640319    1131.565790844784 
  440000   -5528.557295470717   -5528.557295470717   25163.042359927851  -31783.817489031368    1092.217833632797 
  441000   -5545.963452110045   -5545.963452110045   25111.149320596029  -31775.627800861526    1118.515028155450 
  442000   -5580.041367580961   -5580.041367580961   25056.213527355001  -31781.044888837114    1144.789993901153 
  443000   -5542.859435930255   -5542.859435930255   25134.239257216352  -31776.652420864579    1099.553727717974 
  444000   -5509.668967982954   -5509.668967982954   25185.851731016955  -31779.451755396443    1083.931056396538 
  445000   -5483.958804526479   -5483.958804526479   25218.954738399145  -31780.709692486897    1077.796149561272 
  446000   -5490.144627213365   -5490.144627213365   25180.560655493275  -31778.323197954127    1107.617915247483 
  447000   -5424.144187177790   -5424.144187177790   25314.832552981439  -31779.380183605212    1040.403443445981 
  448000   -5546.699297128365   -5546.699297128365   25137.569114425227  -31778.479052819395    1094.210641265804 
  449000   -5514.131090112165   -5514.131090112165   25178.111692438491  -31780.530431545652    1088.287648994996 
  450000   -5505.610231503957   -5505.610231503957   25176.591474996712  -31780.308344350004    1098.106637849333 
  451000   -5465.498447749542   -5465.498447749542   25222.750901692612  -31779.067195656327    1090.817846214169 
  452000   -5474.525025486044   -5474.525025486044   25214.963788319656  -31782.842744485213    1093.353930679514 
  453000   -5529.701157169027   -5529.701157169027   25163.169979451435  -31783.106627576642    1090.235490956182 
  454000   -5572.838802758768   -5572.838802758768   25016.362587976539  -31779.863547457662    1190.662156722356 
  455000   -5550.505990482754   -5550.505990482754   25084.367520076739  -31780.482098115226    1145.608587555729 
  456000   -5500.892728829138   -5500.892728829138   25194.440809537467  -31782.085694139016    1086.752155772407 
  457000   -5518.150148939218   -5518.150148939218   25177.589341973111  -31778.830782560697    1083.091291648363 
  458000   -5483.847829874252   -5483.847829874252   25255.469175158491  -31777.938095580419    1038.621090547678 
  459000   -5542.115050908455   -5542.115050908455   25202.799342537648  -31780.546916576386    1035.632523130280 
  460000   -5457.945272681936   -5457.945272681936   25309.743256042388  -31779.728080432840    1012.039551708511 
  461000   -5515.235687815515   -5515.235687815515   25235.074714995462  -31782.775467417465    1032.465064606489 
  462000   -5513.076384185391   -5513.076384185391   25097.844819580314  -31782.999655633001    1172.078451867295 
  463000   -5596.486274054885   -5596.486274054885   25064.965976972282  -31780.931337083046    1119.479086055879 
  464000   -5520.879946472887   -5520.879946472887   25156.259325058505  -31780.626538168490    1103.487266637100 
  465000   -5519.908682097874   -5519.908682097874   25175.931988971766  -31780.277169569687    1084.436498500043 
  466000   -5534.536786188408   -5534.536786188408   25171.762055701663  -31781.617908252836    1075.319066362762 
  467000   -5524.387243264300   -5524.387243264300   25128.538966995700  -31782.105351627764    1129.179141367769 
  468000   -5543.841630266674   -5543.841630266674   25171.330395205805  -31780.301146504422    1065.129121031943 
  469000   -5499.398299047316   -5499.398299047316   25243.510200218429  -31775.706782125704    1032.798282859962 
  470000   -5512.954335462637   -5512.954335462637   25241.127072408257  -31779.881869274363    1025.800461403464 
  471000   -5560.925052767219   -5560.925052767219   25154.173470703816  -31785.159754328735    1070.061230857700 
  472000   -5541.836884252203   -5541.836884252203   25163.471194511370  -31783.948844431521    1078.640765667949 
  473000   -5536.413257598357   -5536.413257598357   25125.492768052980  -31777.824169426181    1115.918143774849 
  474000   -5519.031317718687   -5519.031317718687   25193.013253403369  -31778.499338408190    1066.454767286129 
  475000   -5461.877497332120   -5461.877497332120   25225.373413981371  -31779.917066790716    1092.666155477223 
  476000   -5494.573761969448   -5494.573761969448   25190.611308542135  -31779.795773038943    1094.610702527361 
  477000   -5527.177839942582   -5527.177839942582   25148.030969887946  -31778.238509398790    1103.029699568263 
  478000   -5566.231362071099   -5566.231362071099   25093.307471955533  -31781.422584434091    1121.883750407451 
  479000   -5550.195708626332   -5550.195708626332   25111.295421161085  -31780.643199681344    1119.152069893925 
  480000   -5547.373499713034   -5547.373499713034   25104.358625208592  -31779.626633567681    1127.894508646054 
  481000   -5589.524834369593   -5589.524834369593   25084.517285909817  -31778.989588344117    1104.947468064709 
  482000   -5483.189811299450   -5483.189811299450   25171.163332350861  -31778.227809143926    1123.874665493612 
  483000   -5495.030730440420   -5495.030730440420   25213.620226461913  -31777.809928371564    1069.158971469230 
  484000   -5551.259811276894   -5551.259811276894   25114.941254325207  -31775.650688311736    1109.449622709633 
  485000   -5445.904868354719   -5445.904868354719   25236.470444375547  -31774.398659936578    1092.023347206313 
  486000   -5525.805752941556   -5525.805752941556   25235.371800994908  -31782.284406854567    1021.106852918098 
  487000   -5499.859619624480   -5499.859619624480   25119.769978917615  -31779.802775468819    1160.173176926725 
  488000   -5499.777806888855   -5499.777806888855   25146.042714458134  -31780.431911790492    1134.611390443505 
  489000   -5513.224663022545   -5513.224663022545   25160.876532203241  -31776.504868312160    1102.403673086370 
  490000   -5515.911070420578   -5515.911070420578   25140.413623448752  -31781.364209895699    1125.039516026368 
  491000   -5539.740385368652   -5539.740385368652   25133.863534438424  -31782.084957319417    1108.481037512343 
  492000   -5518.604168934013   -5518.604168934013   25135.249902042931  -31781.881474171409    1128.027403194466 
  493000   -5479.681942639167   -5479.681942639167   25213.771950872717  -31770.643624119773    1077.189730607888 
  494000   -5522.895872881170   -5522.895872881170   25185.221677614703  -31778.946400087418    1070.828849591538 
  495000   -5557.153935669317   -5557.153935669317   25136.075570197612  -31779.813316579835    1086.583810712910 
  496000   -5576.039199923329   -5576.039199923329   25059.405922706996  -31782.770048366845    1147.324925736515 
  497000   -5560.464555339007   -5560.464555339007   25133.457390806787  -31779.676959859353    1085.755013713555 
  498000   -5473.625125392329   -5473.625125392329   25236.649898695327  -31779.256494266559    1068.981470178901 
  499000   -5585.016558327981   -5585.016558327981   25045.739457546799  -31776.247376900374    1145.491361025593 
  500000   -5509.695740097621   -5509.695740097621   25192.671997728663  -31781.056869272579    1078.689131446295 
  501000   -5498.248661139372   -5498.248661139372   25196.813176380849  -31775.683933177010    1080.622095656790 
  502000   -5583.069872781209   -5583.069872781209   25041.568178502730  -31783.035538250653    1158.397486966710 
  503000   -5531.391106453808   -5531.391106453808   25164.448793619515  -31781.682140679182    1085.842240605865 
  504000   -5576.605175021468   -5576.605175021468   25017.735298996136  -31778.265715533831    1183.925241516226 
  505000   -5518.627609140436   -5518.627609140436   25205.230935005296  -31780.691142989104    1056.832598843376 
  506000   -5529.831931768593   -5529.831931768593   25126.190239647436  -31779.808964239888    1123.786792823859 
  507000   -5579.258510325140   -5579.258510325140   25138.238384882759  -31783.236853186496    1065.739957978597 
  508000   -5512.798745100648   -5512.798745100648   25141.945791423597  -31782.422927470609    1127.678390946366 
  509000   -5455.325249739657   -5455.325249739657   25237.987661682833  -31775.950202866552    1082.637291444060 
  510000   -5503.938290486916   -5503.938290486916   25167.407233931328  -31782.266773179152    1110.921248760910 
  511000   -5516.397939107130   -5516.397939107130   25155.481331924246  -31782.153055001691    1110.273783970315 
  512000   -5551.655063993832   -5551.655063993832   25183.609718148979  -31784.872378154731    1049.607596011920 
  513000   -5472.719468446478   -5472.719468446478   25237.346530556304  -31778.238928660881    1068.172929658097 
  514000   -5436.513756295735   -5436.513756295735   25266.715366094260  -31779.082727277357    1075.853604887363 
  515000   -5451.517687418720   -5451.517687418720   25336.046394947938  -31782.280103242982     994.716020876325 
  516000   -5553.635830787611   -5553.635830787611   25102.730550996457  -31784.139429688388    1127.773047904324 
  517000   -5565.307487055543   -5565.307487055543   25147.933055103564  -31778.502949790833    1065.262407631726 
  518000   -5600.404442742547   -5600.404442742547   25065.240794658966  -31782.864850451188    1117.219613049670 
  519000   -5576.958366501411   -5576.958366501411   25083.918288191337  -31783.671931084282    1122.795276391535 
  520000   -5540.478341454189   -5540.478341454189   25220.175168635000  -31784.430806930952    1023.777296841760 
  521000   -5489.447376901335   -5489.447376901335   25256.080468230488  -31779.618236009297    1034.090390877477 
  522000   -5500.230973263268   -5500.230973263268   25120.283254920760  -31779.488251392224    1158.974023208196 
  523000   -5538.308588898348   -5538.308588898348   25143.767339651051  -31774.195159069750    1092.119230520357 
  524000   -5511.783249301079   -5511.783249301079   25176.391078435816  -31781.627088504050    1093.452760767155 
  525000   -5457.484280798992   -5457.484280798992   25196.483621616637  -31780.579120963899    1126.611218548268 
  526000   -5565.528382171640   -5565.528382171640   25091.926077716482  -31780.666763023713    1123.212303135590 
  527000   -5543.905263972007   -5543.905263972007   25135.717113860541  -31781.573057285230    1101.950679452681 
  528000   -5539.287013058271   -5539.287013058271   25162.567164216336  -31780.324936595363    1078.470759320758 
  529000   -5542.047212427835   -5542.047212427835   25177.870495923678  -31778.839250411344    1058.921542059828 
  530000   -5480.585676924435   -5480.585676924435   25235.117032455626  -31778.944686180334    1063.241976800273 
  531000   -5481.754934650042   -5481.754934650042   25209.703846677083  -31780.816994762816    1089.358213435685 
  532000   -5509.061009187488   -5509.061009187488   25141.922717620764  -31781.644811667364    1130.661084859113 
  533000   -5521.158081078698   -5521.158081078698   25166.927205031257  -31775.532034530199    1087.446748420243 
  534000   -5531.925617703131   -5531.925617703131   25177.279745883738  -31776.216684306568    1067.011320719699 
  535000   -5549.741825251062   -5549.741825251062   25075.661524162799  -31784.024868260840    1158.621518846979 
  536000   -5548.973170897527   -5548.973170897527   25139.598991778294  -31778.671555306286    1090.099392630465 
  537000   -5553.335894666056   -5553.335894666056   25100.937701218332  -31779.983301185901    1125.709705301516 
  538000   -5540.943644261693   -5540.943644261693   25089.044595460553  -31779.377042161883    1149.388802439638 
  539000   -5491.341529778507   -5491.341529778507   25181.991040384342  -31778.479865348836    1105.147295185992 
  540000   -5488.842907661950   -5488.842907661950   25247.774577763343  -31778.123938690591    1041.506453265299 
  541000   -5474.883402007745   -5474.883402007745   25188.891767299261  -31779.530062219776    1115.754892912769 
  542000   -5552.672074276819   -5552.672074276819   25169.471470942095  -31781.518377315831    1059.374832096917 
  543000   -5598.300671285910   -5598.300671285910   24988.595531876905  -31781.615156532036    1194.718953369224 
  544000   -5554.892431274526   -5554.892431274526   25096.125938763158  -31779.648688498088    1128.630318460406 
  545000   -5556.338901668456   -5556.338901668456   25169.992831442672  -31778.507110591312    1052.175377480178 
  546000   -5555.160558636795   -5555.160558636795   25170.345388274996  -31782.919361110646    1057.413414198855 
  547000   -5567.791198457307   -5567.791198457307   25132.031026015276  -31782.441921756337    1082.619697283754 
  548000   -5503.131657297061   -5503.131657297061   25199.071809366174  -31779.653331335132    1077.449864671896 
  549000   -5489.557764727106   -5489.557764727106   25238.596228061051  -31782.569025793586    1054.415033005430 
  550000   -5486.731396659186   -5486.731396659186   25204.826897656596  -31780.623059232847    1089.064764917061 
  551000   -5556.517570136053   -5556.517570136053   25170.207202620513  -31781.104264342546    1054.379491585976 
  552000   -5547.444679395772   -5547.444679395772   25198.708079551241  -31782.794383592140    1036.641624645129 
  553000   -5530.671159959373   -5530.671159959373   25217.352003861241  -31781.183120523823    1033.159956703209 
  554000   -5491.801189118643   -5491.801189118643   25199.296095551468  -31780.477185922860    1089.379901252752 
  555000   -5561.747236491599   -5561.747236491599   25141.954980421571  -31778.592885450646    1074.890668537478 
  556000   -5544.517410702036   -5544.517410702036   25179.342236162469  -31780.740829217313    1056.881182352804 
  557000   -5547.432108319674   -5547.432108319674   25101.188573233256  -31779.660625654058    1131.039944101129 
  558000   -5537.557463932662   -5537.557463932662   25212.422187479544  -31781.764909561472    1031.785258149270 
  559000   -5530.375844780945   -5530.375844780945   25218.631775309223  -31784.022335776986    1035.014715686819 
  560000   -5553.620079066230   -5553.620079066230   25101.237808479411  -31780.605203813015    1125.747316267375 
  561000   -5548.986748813910   -5548.986748813910   25102.182742448640  -31780.100624944764    1128.931133682208 
  562000   -5578.636490256442   -5578.636490256442   25121.850907259050  -31783.951402879688    1083.464005364199 
  563000   -5483.786433527042   -5483.786433527042   25245.622139485233  -31778.785591204454    1049.377018192183 
  564000   -5509.114387002843   -5509.114387002843   25211.029197158274  -31782.460468211280    1062.316884050161 
  565000   -5522.854439874685   -5522.854439874685   25162.837578498591  -31780.335844324338    1094.643825951061 
  566000   -5551.234083207433   -5551.234083207433   25088.434817051730  -31782.105079799869    1142.436179540705 
  567000   -5544.660597074937   -5544.660597074937   25188.971971982981  -31783.348450483711    1049.715881425796 
  568000   -5647.176847421135   -5647.176847421135   24963.293529958843  -31780.271965721477    1169.801588341502 
  569000   -5574.157957829633   -5574.157957829633   25100.126245994659  -31781.528118418242    1107.243914593951 
  570000   -5556.606779557664   -5556.606779557664   25151.385915277537  -31781.909760136587    1073.917065301384 
  571000   -5495.749635352604   -5495.749635352604   25259.241919213211  -31781.916967808847    1026.925413243031 
  572000   -5535.980395043302   -5535.980395043302   25198.506927224131  -31783.263833707369    1048.776511439939 
  573000   -5549.951755732662   -5549.951755732662   25124.840301954493  -31779.139227121392    1104.347169434238 
  574000   -5542.989915476217   -5542.989915476217   25235.253618591341  -31781.526449717428    1003.282915649869 
  575000   -5582.181771323496   -5582.181771323496   25068.146496136840  -31780.754717997472    1130.426450537135 
  576000   -5573.184424317249   -5573.184424317249   25128.913306581322  -31778.646028466737    1076.548297568165 
  577000   -5499.164791584113   -5499.164791584113   25217.607792055103  -31777.835733421736    1061.063149782520 
  578000   -5493.048159304180   -5493.048159304180   25169.981031017778  -31779.366713122796    1116.337522800836 
  579000   -5543.757943126035   -5543.757943126035   25054.614694632524  -31782.400942135118    1184.028304376563 
  580000   -5495.977463155432   -5495.977463155432   25289.420775888459  -31774.152100028034     988.753860984138 
  581000   -5466.140679790413   -5466.140679790413   25254.931441433640  -31781.022560621524    1059.950439397469 
  582000   -5571.817993089237   -5571.817993089237   25139.981699092525  -31781.432606568393    1069.632914386629 
  583000   -5550.637259488340   -5550.637259488340   25108.882769176264  -31782.399539456670    1122.879510792073 
  584000   -5537.842247058812   -5537.842247058812   25146.668972175743  -31780.816343515900    1096.305124281348 
  585000   -5520.361337125138   -5520.361337125138   25171.464848820899  -31781.849495061713    1090.023309115674 
  586000   -5481.044333117017   -5481.044333117017   25245.881784051278  -31775.814002532301    1048.887885364005 
  587000   -5535.902485171639   -5535.902485171639   25179.597007910714  -31780.185958946546    1064.686465864188 
  588000   -5529.207363253154   -5529.207363253154   25203.148146785086  -31777.144598756320    1044.789088718077 
  589000   -5601.560781025823   -5601.560781025823   25078.722731327718  -31785.494372374982    1105.210860021439 
  590000   -5592.694535560400   -5592.694535560400   25075.422672756336  -31782.295333831014    1114.178125514279 
  591000   -5545.992153308602   -5545.992153308602   25131.813691395393  -31780.458118651437    1102.652273947438 
  592000   -5556.304713831621   -5556.304713831621   25035.915235327531  -31775.443442548010    1183.223493388854 
  593000   -5505.504800528772   -5505.504800528772   25196.569803876628  -31782.218469064439    1080.143864659042 
  594000   -5541.381312807345   -5541.381312807345   25171.955499730931  -31782.109586858074    1068.772774319795 
  595000   -5594.374660712958   -5594.374660712958   24990.576038846189  -31785.645738401407    1200.695038842257 
  596000   -5475.723272677471   -5475.723272677471   25203.184653733748  -31775.468747243340    1096.560820832119 
  597000   -5491.526585464417   -5491.526585464417   25197.521492127154  -31778.304247862325    1089.256170270755 
  598000   -5562.001270271179   -5562.001270271179   25086.376311108052  -31781.614707297587    1133.237125918359 
  599000   -5538.905514966362   -5538.905514966362   25161.662510129026  -31781.265687284758    1080.697662189368 
  600000   -5544.661078527090   -5544.661078527090   25086.041571174555  -31780.752828010372    1150.050178308726 
  601000   -5604.247955404320   -5604.247955404320   25032.495313914013  -31778.802570609285    1142.059301290951 
  602000   -5570.219354459798   -5570.219354459798   25020.667631824210  -31783.076068360031    1192.189082076027 
  603000   -5537.337361933784   -5537.337361933784   25136.369877767360  -31779.077220843497    1105.369981142355 
  604000   -5475.284547634532   -5475.284547634532   25287.679089350466  -31780.847403902535    1017.883766917539 
  605000   -5513.066673987323   -5513.066673987323   25258.314175404335  -31781.146679192487    1009.765829800828 
  606000   -5520.695314419238   -5520.695314419238   25192.241431086619  -31776.744716369107    1063.807970863250 
  607000   -5567.300351134512   -5567.300351134512   25096.913879707743  -31783.917513693697    1119.703282851444 
  608000   -5497.335137744336   -5497.335137744336   25175.697277018280  -31779.808721248319    1106.776306485700 
  609000   -5509.344241184830   -5509.344241184830   25197.873641158891  -31779.100891536506    1071.883009192784 
  610000   -5488.951047457336   -5488.951047457336   25148.719541537768  -31781.525991955754    1143.855402960651 
  611000   -5547.570643663585   -5547.570643663585   25032.100457112967  -31778.945658337503    1199.274557560952 
  612000   -5573.649474146554   -5573.649474146554   25101.782652203408  -31782.542188264852    1107.110061914886 
  613000   -5544.043105605706   -5544.043105605706   25052.750646795001  -31779.717863034071    1182.924110633363 
  614000   -5485.192944936622   -5485.192944936622   25230.919674585683  -31780.715333553329    1064.602714031024 
  615000   -5596.539528293750   -5596.539528293750   25096.384955152313  -31780.288211499425    1087.363728053366 
  616000   -5511.277354861701   -5511.277354861701   25147.277291949427  -31781.646680087670    1123.092033276543 
  617000   -5487.146981012662   -5487.146981012662   25198.141016495872  -31773.069203557770    1087.781206049237 
  618000   -5546.232621041741   -5546.232621041741   25173.328741535966  -31783.305288458512    1063.743925880800 
  619000   -5513.169488835134   -5513.169488835134   25178.528936581348  -31781.707223517129    1090.008798100645 
  620000   -5510.177035814362   -5510.177035814362   25171.373921258375  -31780.795362542729    1099.244405469992 
  621000   -5552.850251596112   -5552.850251596112   25147.151477998486  -31782.870911661714    1082.869182067114 
  622000   -5516.242920078363   -5516.242920078363   25268.798889581281  -31780.033021504078     994.991211844436 
  623000   -5510.311834684348   -5510.311834684348   25201.712663272934  -31782.181727732015    1070.157229774736 
  624000   -5515.914464239231   -5515.914464239231   25227.507726718348  -31782.697477480935    1039.275286523358 
  625000   -5544.485167581886   -5544.485167581886   25074.087253733727  -31779.609414262100    1161.036992946488 
  626000   -5520.548287268070   -5520.548287268070   25149.006123090585  -31780.092870959561    1110.538460600906 
  627000   -5532.162506899494   -5532.162506899494   25163.707886553537  -31781.049875154928    1085.179481701902 
  628000   -5484.508512064502   -5484.508512064502   25285.870021465733  -31780.591314697976    1010.212781167747 
  629000   -5460.455909924200   -5460.455909924200   25215.898748205960  -31779.206240884276    1102.851582754116 
  630000   -5516.238435270625   -5516.238435270625   25239.440693346965  -31780.652760904606    1024.973632287015 
  631000   -5516.270349255432   -5516.270349255432   25127.441180431073  -31779.154266425892    1135.442736739387 
  632000   -5518.718607785297   -5518.718607785297   25174.989527945912  -31778.521710274603    1084.813574543392 
  633000   -5525.326119743972   -5525.326119743972   25192.007563554616  -31779.076247094068    1061.742563795483 
  634000   -5540.752707987140   -5540.752707987140   25240.694689823464  -31777.547417073903     996.100019263299 
  635000   -5501.437281970786   -5501.437281970786   25134.753470738920  -31777.891769456670    1141.701016746963 
  636000   -5442.146341869731   -5442.146341869731   25287.071017412367  -31780.547400063577    1051.330040781480 
  637000   -5516.651687010217   -5516.651687010217   25111.395710992198  -31780.388920916015    1152.341522913604 
  638000   -5522.556689423673   -5522.556689423673   25186.183499031664  -31780.094704242725    1071.354515787388 
  639000   -5498.196451979609   -5498.196451979609   25171.433514983550  -31776.130637937567    1106.500670974411 
  640000   -5479.001547636784   -5479.001547636784   25259.957319667323  -31779.024489292475    1040.065621988360 
  641000   -5515.903032958850   -5515.903032958850   25203.949023761023  -31778.611893540361    1058.759836820491 
  642000   -5540.667307685871   -5540.667307685871   25159.408716780086  -31780.126781135074    1080.050756669117 
  643000   -5520.841172271168   -5520.841172271168   25127.484794944725  -31780.083113394863    1131.757146178974 
  644000   -5524.050272474673   -5524.050272474673   25149.663100233229  -31779.829814980880    1106.116442272982 
  645000   -5533.864045693103   -5533.864045693103   25109.836615674543  -31782.192205781463    1138.491544413815 
  646000   -5589.180027371069   -5589.180027371069   25034.286420234290  -31787.732707954507    1164.266260349149 
  647000   -5530.386316093747   -5530.386316093747   25149.094210870368  -31780.182041280867    1100.701514316753 
  648000   -5578.874304712459   -5578.874304712459   25095.794209189367  -31784.053939931011    1109.385426029181 
  649000   -5574.116925535836   -5574.116925535836   25047.927738575534  -31776.972473821050    1154.927809709681 
  650000   -5544.171281521758   -5544.171281521758   25134.014290333340  -31782.773540188929    1104.587968333833 
  651000   -5476.161182017757   -5476.161182017757   25221.195740598087  -31779.004034907302    1081.647112291458 
  652000   -5540.715605366433   -5540.715605366433   25102.966993814498  -31780.128666212626    1136.446067031695 
  653000   -5451.785164532554   -5451.785164532554   25250.177578846175  -31780.997126379156    1079.034383000427 
  654000   -5548.931430128017   -5548.931430128017   25080.862979584381  -31779.024597946231    1149.230188233832 
  655000   -5520.042828669095   -5520.042828669095   25187.116784110422  -31777.479082661659    1070.319469882148 
  656000   -5512.132823346205   -5512.132823346205   25182.485056718622  -31785.335788097422    1090.717908032598 
  657000   -5517.087541230565   -5517.087541230565   25209.676438314520  -31780.416356525315    1053.652376980225 
  658000   -5544.616221230237   -5544.616221230237   25136.323341667809  -31782.156373775266    1101.216810877223 
  659000   -5564.130425174080   -5564.130425174080   25097.674585696052  -31779.108989269458    1117.303978399331 
  660000   -5509.531278485942   -5509.531278485942   25189.437343738678  -31778.570428137638    1079.601805913015 
  661000   -5528.644284972645   -5528.644284972645   25194.258374901601  -31780.639296094072    1057.736636219828 
  662000   -5480.714097544434   -5480.714097544434   25232.422978337658  -31779.880096551518    1066.743020669421 
  663000   -5522.527849412432   -5522.527849412432   25112.502216119927  -31783.429823775925    1148.399758243562 
  664000   -5499.853457575387   -5499.853457575387   25189.164801017134  -31781.881521959891    1092.863263367370 
  665000   -5569.152738331057   -5569.152738331057   25112.514768131718  -31782.692638313620    1101.025131850848 
  666000   -5557.049097501837   -5557.049097501837   25098.279468144268  -31783.309204731140    1127.980639085039 
  667000   -5554.224708591970   -5554.224708591970   25149.023216419351  -31783.535665266292    1080.287740254968 
  668000   -5524.021493417651   -5524.021493417651   25243.191169321166  -31777.283149640873    1010.070486902055 
  669000   -5549.982844073955   -5549.982844073955   25114.636065444727  -31778.825033453817    1114.206123935130 
  670000   -5507.400577787212   -5507.400577787212   25208.562008243371  -31780.349029583602    1064.386443553016 
  671000   -5516.838414725637   -5516.838414725637   25160.493574622407  -31774.947468325605    1097.615478977559 
  672000   -5495.827824093747   -5495.827824093747   25201.543873119059  -31781.034271001434    1083.662573788628 
  673000   -5588.935365252804   -5588.935365252804   25087.825596814524  -31781.713858976029    1104.952896908701 
  674000   -5558.487370743125   -5558.487370743125   25157.259568146139  -31780.160527086220    1064.413588196952 
  675000   -5547.492046592124   -5547.492046592124   25130.874850436703  -31783.595744213930    1105.228847185104 
[...]
 4838000   -5509.983521947153   -5509.983521947153   24938.356583640314  -31566.653791451896    1118.313685864426 
 4839000   -5514.464043456148   -5514.464043456148   24959.287506632190  -31571.182593026017    1097.431042937678 
 4840000   -5534.195345092485   -5534.195345092485   24985.297541028514  -31571.577316944818    1052.084430823818 
 4841000   -5569.198062462885   -5569.198062462885   24900.387081961129  -31572.351030411581    1102.765885987568 
 4842000   -5555.361323625464   -5555.361323625464   24908.040099102986  -31570.415069903684    1107.013647175234 
 4843000   -5477.770935348643   -5477.770935348643   25018.590434430316  -31573.509626875551    1077.148257096586 
 4844000   -5534.315941410387   -5534.315941410387   24936.780434165299  -31569.750599529223    1098.654223953538 
 4845000   -5540.929762198168   -5540.929762198168   24920.910008637344  -31573.820106812327    1111.980335976816 
 4846000   -5564.000347334822   -5564.000347334822   24951.608173242639  -31572.024833875828    1056.416313298366 
 4847000   -5564.815996714646   -5564.815996714646   24906.469416583252  -31570.489147778138    1099.203734480246 
 4848000   -5506.519898963237   -5506.519898963237   24990.609292143905  -31572.312466913634    1075.183275806492 
 4849000   -5524.517076476648   -5524.517076476648   24981.284822942194  -31573.165467213006    1067.363567794160 
 4850000   -5508.082849094677   -5508.082849094677   24939.533529504028  -31568.980921275586    1121.364542676882 
 4851000   -5566.663792553099   -5566.663792553099   24850.468789233168  -31574.116950299758    1156.984368513489 
 4852000   -5539.863724216895   -5539.863724216895   24891.093050238524  -31572.854580107218    1141.897805651798 
 4853000   -5479.624201071652   -5479.624201071652   25108.053926304321  -31566.654351575191     978.976224199211 
 4854000   -5570.098040513880   -5570.098040513880   24877.856400964418  -31566.010243589681    1118.055802111388 
 4855000   -5450.440017635676   -5450.440017635676   25051.968738037503  -31569.229306885503    1066.820551212324 
 4856000   -5513.180498414076   -5513.180498414076   24936.230718525869  -31567.677487564986    1118.266270625035 
 4857000   -5535.906810761415   -5535.906810761415   24938.778908913038  -31571.394857514155    1096.709137839702 
 4858000   -5563.585851003940   -5563.585851003940   24883.242085340185  -31566.447396700780    1119.619460356655 
 4859000   -5523.513554936620   -5523.513554936620   24949.804406706862  -31571.971961457824    1098.653999814342 
 4860000   -5600.235815785472   -5600.235815785472   24822.457523360907  -31575.402391814703    1152.709052668323 
 4861000   -5536.046031152244   -5536.046031152244   24898.376454441066  -31571.233387963966    1136.810902370651 
 4862000   -5511.688870481808   -5511.688870481808   25000.936616014318  -31572.345748440104    1059.720261943975 
 4863000   -5510.411667065251   -5510.411667065251   25001.732011817323  -31573.600834559944    1061.457155677367 
 4864000   -5490.958645451552   -5490.958645451552   24994.290661014147  -31571.033364941559    1085.784058475861 
 4865000   -5510.029752874965   -5510.029752874965   25010.348347519594  -31570.151119441718    1049.773019047161 
 4866000   -5562.854704628455   -5562.854704628455   24937.592750874854  -31571.645257367400    1071.197801864089 
 4867000   -5482.382503924200   -5482.382503924200   25000.313902574479  -31573.054480981937    1090.358074483256 
 4868000   -5562.328248586331   -5562.328248586331   24920.685379114031  -31575.962665401967    1092.949037701608 
 4869000   -5548.879373644635   -5548.879373644635   24939.858814386673  -31571.445924627311    1082.707736596006 
 4870000   -5539.237730111745   -5539.237730111745   24918.715509855618  -31572.137344777620    1114.184104810255 
 4871000   -5576.077551040777   -5576.077551040777   24908.280210746612  -31568.475224042693    1084.117462255308 
 4872000   -5517.457065825798   -5517.457065825798   24989.170130162071  -31572.431506407262    1065.804310419394 
 4873000   -5515.512928939457   -5515.512928939457   24965.868099707477  -31568.089747346898    1086.708718699970 
 4874000   -5504.749172927193   -5504.749172927193   24962.381724161627  -31567.516387439995    1100.385490351171 
 4875000   -5436.536008871128   -5436.536008871128   25034.228837282288  -31570.396908272054    1099.632062118637 
 4876000   -5505.690671796448   -5505.690671796448   24995.317657884800  -31573.313439650887    1072.305109969638 
 4877000   -5518.188834061406   -5518.188834061406   24998.588427863790  -31567.687536780209    1050.910274855014 
 4878000   -5484.644534783249   -5484.644534783249   24994.876774845121  -31570.825427652147    1091.304118023773 
 4879000   -5567.374022479100   -5567.374022479100   24881.345333806457  -31574.003453708585    1125.284097423025 
 4880000   -5547.649490381446   -5547.649490381446   24961.511505409519  -31573.552045046916    1064.391049255951 
 4881000   -5494.175231853013   -5494.175231853013   25005.473789111475  -31567.247573053690    1067.598552089203 
 4882000   -5561.902525728674   -5561.902525728674   24897.328137914948  -31572.473778020762    1113.243114377138 
 4883000   -5524.532340094622   -5524.532340094622   24966.684387554647  -31568.302493301966    1077.085765652693 
 4884000   -5533.444936174463   -5533.444936174463   24946.479303841093  -31572.057875560946    1092.133635545392 
 4885000   -5473.608894151625   -5473.608894151625   24996.278465666626  -31562.334548686737    1092.447188868487 
 4886000   -5460.671544922247   -5460.671544922247   25041.645736250339  -31573.751328384402    1071.434047211813 
 4887000   -5547.459421288040   -5547.459421288040   24962.447101073725  -31574.848549381695    1064.942027019931 
 4888000   -5449.120966941846   -5449.120966941846   25020.106118580792  -31566.603896428445    1097.376810905808 
 4889000   -5530.086512473947   -5530.086512473947   24957.824323377907  -31570.792489763466    1082.881653911611 
 4890000   -5458.717594404210   -5458.717594404210   25052.374106634306  -31571.217725949071    1060.126024910553 
 4891000   -5542.655442229534   -5542.655442229534   24855.645658834637  -31574.795818815255    1176.494717751086 
 4892000   -5535.352815436483   -5535.352815436483   24893.132966149173  -31567.169383918626    1138.683602332969 
 4893000   -5562.225602064987   -5562.225602064987   24936.709607418321  -31571.557946861736    1072.622737378429 
 4894000   -5543.324509980641   -5543.324509980641   24890.766808659395  -31567.791102160914    1133.699783520883 
 4895000   -5515.885566036628   -5515.885566036628   24964.420293374584  -31574.387793822611    1094.081934411399 
 4896000   -5576.146725249302   -5576.146725249302   24943.983775529545  -31570.562585558251    1050.432084779406 
 4897000   -5575.612833729832   -5575.612833729832   24846.475457725093  -31567.104676057261    1145.016384602334 
 4898000   -5479.412809524907   -5479.412809524907   24971.286588395193  -31564.619574388267    1113.920176468165 
 4899000   -5545.003789088612   -5545.003789088612   24950.038992511043  -31573.728183828793    1078.685402229139 
 4900000   -5589.859321197284   -5589.859321197284   24827.606235592630  -31572.029634077659    1154.564077287742 
 4901000   -5529.373458792776   -5529.373458792776   24961.352647372849  -31572.604647244123    1081.878541078500 
 4902000   -5607.957239311603   -5607.957239311603   24893.851964037793  -31569.519309043142    1067.710105693742 
 4903000   -5542.160919096663   -5542.160919096663   24968.740376341026  -31573.272454604899    1062.371159167211 
 4904000   -5522.993872999126   -5522.993872999126   25004.324979660989  -31569.613944734712    1042.295092074593 
 4905000   -5560.798623574126   -5560.798623574126   24941.306939290760  -31570.811434866042    1068.705872001158 
 4906000   -5541.879146647050   -5541.879146647050   24949.250431492084  -31572.203441043934    1081.073862904799 
 4907000   -5467.055710716584   -5467.055710716584   25004.681697708307  -31568.114992575265    1096.377584150376 
 4908000   -5513.797327174998   -5513.797327174998   24955.147741848385  -31565.911462796914    1096.966393773532 
 4909000   -5574.328647966882   -5574.328647966882   24933.540382428706  -31574.060959096398    1066.191928700810 
 4910000   -5554.997551714845   -5554.997551714845   24898.638722342119  -31570.532399234355    1116.896125177392 
 4911000   -5548.824903723271   -5548.824903723271   24897.071806146108  -31568.677314789365    1122.780604919985 
 4912000   -5515.597544511566   -5515.597544511566   25034.462674285169  -31572.609834532799    1022.549615736064 
 4913000   -5534.858788090383   -5534.858788090383   24935.436799090072  -31576.855274757345    1106.559687576890 
 4914000   -5552.042777428080   -5552.042777428080   24893.908057269444  -31572.306419996017    1126.355585298493 
 4915000   -5532.511188864384   -5532.511188864384   24921.189907807726  -31572.165660614552    1118.464563942440 
 4916000   -5526.594545040502   -5526.594545040502   24989.984591377004  -31571.155660703713    1054.576524286209 
 4917000   -5523.191349367891   -5523.191349367891   24906.480250790053  -31565.456186903066    1135.784586745123 
 4918000   -5563.500606872145   -5563.500606872145   24927.765172645690  -31572.513645157636    1081.247865639796 
 4919000   -5495.182093305775   -5495.182093305775   25033.704237436821  -31572.408664043422    1043.522333300825 
 4920000   -5494.465919019927   -5494.465919019927   25009.104376481773  -31572.654729616319    1069.084434114622 
 4921000   -5526.918902002391   -5526.918902002391   24926.493501891280  -31568.672656620285    1115.260252726614 
 4922000   -5563.343323738223   -5563.343323738223   24855.202396084867  -31571.989261697305    1153.443541874216 
 4923000   -5570.607219124184   -5570.607219124184   24909.977236597973  -31569.930855544990    1089.346399822836 
 4924000   -5532.821487297380   -5532.821487297380   25028.401967181249  -31568.794807049351    1007.571352570721 
 4925000   -5526.245781385212   -5526.245781385212   24966.442116447426  -31571.288391834642    1078.600494002007 
 4926000   -5530.577814034870   -5530.577814034870   24939.230899196496  -31573.520194281580    1103.711481050208 
 4927000   -5585.870871223560   -5585.870871223560   24881.567725847119  -31573.672627111664    1106.234030040988 
 4928000   -5529.319357957480   -5529.319357957480   24941.541904796104  -31573.007687062331    1102.146424308744 
 4929000   -5480.095896758950   -5480.095896758950   24982.458686106969  -31571.320766554727    1108.766183688808 
 4930000   -5523.012905125866   -5523.012905125866   24916.742610374607  -31569.017095322750    1129.261579822277 
 4931000   -5568.919671000749   -5568.919671000749   24879.861284509305  -31571.457285859000    1122.676330348952 
 4932000   -5538.982784898708   -5538.982784898708   24943.980237068114  -31571.527970918880    1088.564948952054 
 4933000   -5568.305882647874   -5568.305882647874   24891.960971664037  -31572.779065664268    1112.512211352364 
 4934000   -5506.899314576087   -5506.899314576087   24960.665076404213  -31567.785156385678    1100.220765405374 
 4935000   -5522.763121158951   -5522.763121158951   24939.778940512864  -31570.354254290640    1107.812192618823 
 4936000   -5591.186971955689   -5591.186971955689   24859.697213387881  -31567.925889363756    1117.041704020186 
 4937000   -5557.567077838161   -5557.567077838161   24918.611409438359  -31568.025457654643    1091.846970378122 
 4938000   -5496.388325782857   -5496.388325782857   24958.896395886215  -31570.159556906772    1114.874835237695 
 4939000   -5542.184600751945   -5542.184600751945   24950.573200711246  -31570.446601795305    1077.688800332113 
 4940000   -5599.917579706464   -5599.917579706464   24927.060988326397  -31576.587871836869    1049.609303804013 
 4941000   -5516.608423144171   -5516.608423144171   24983.847503415298  -31568.201654172626    1067.745727613157 
 4942000   -5551.412968480916   -5551.412968480916   24931.462236309802  -31569.568149282277    1086.692944491565 
 4943000   -5572.655172741059   -5572.655172741059   24808.590174671786  -31572.734099516118    1191.488752103268 
 4944000   -5477.122593504548   -5477.122593504548   25059.121242033340  -31568.361531458308    1032.117695920423 
 4945000   -5577.085992766097   -5577.085992766097   24935.515419455944  -31573.428406457133    1060.826994235090 
 4946000   -5520.004287621010   -5520.004287621010   24965.744268021841  -31572.740507492093    1086.991951849243 
 4947000   -5535.933036965151   -5535.933036965151   24861.275491497785  -31570.757802766522    1173.549274303584 
 4948000   -5568.595095251934   -5568.595095251934   24906.827320659500  -31569.466142604251    1094.043726692819 
 4949000   -5519.896107664590   -5519.896107664590   24972.473355855378  -31576.308771122796    1083.939307602822 
 4950000   -5493.010631883335   -5493.010631883335   24981.492958634615  -31568.513840907865    1094.010250389915 
 4951000   -5536.432719658409   -5536.432719658409   24978.111380400900  -31572.721102686515    1058.177002627205 
 4952000   -5517.893021992142   -5517.893021992142   24993.739172493628  -31572.104494150881    1060.472299665110 
 4953000   -5519.763572279575   -5519.763572279575   24971.089405070757  -31571.539627744925    1080.686650394591 
 4954000   -5596.192107933475   -5596.192107933475   24770.778600214857  -31566.789792480693    1199.819084332362 
 4955000   -5506.335803057598   -5506.335803057598   25022.585183159536  -31566.475095404581    1037.554109187446 
 4956000   -5537.987992362112   -5537.987992362112   24866.350637360709  -31570.827055424474    1166.488425701652 
 4957000   -5569.863282451617   -5569.863282451617   24893.224307048342  -31570.603788466527    1107.516198966568 
 4958000   -5475.147846269112   -5475.147846269112   25023.756042075740  -31568.583467096872    1069.679578752021 
 4959000   -5483.787016925486   -5483.787016925486   25077.756734650029  -31569.509385596059    1007.965634020546 
 4960000   -5526.799168343525   -5526.799168343525   24919.290738340398  -31568.611695031250    1122.521788347329 
 4961000   -5557.878179356852   -5557.878179356852   24848.545541328807  -31572.733722978563    1166.310002292906 
 4962000   -5566.526770052955   -5566.526770052955   24860.522202021035  -31569.355852821289    1142.306880747302 
 4963000   -5504.004734041664   -5504.004734041664   25005.813846455167  -31572.850175404055    1063.031594907225 
 4964000   -5531.657045422711   -5531.657045422711   24930.280753948398  -31570.863008406901    1108.925209035791 
 4965000   -5514.093883968824   -5514.093883968824   24943.154041214650  -31565.699539039982    1108.451613856511 
 4966000   -5547.068546413171   -5547.068546413171   24907.177253166239  -31573.511234990718    1119.265435411307 
 4967000   -5513.759672239856   -5513.759672239856   25015.987151066351  -31570.484262867318    1040.737439561106 
 4968000   -5548.071090373411   -5548.071090373411   24970.791286034881  -31569.851514970953    1050.989138562659 
 4969000   -5531.647981380953   -5531.647981380953   24915.999955359861  -31573.337743604399    1125.689806863591 
 4970000   -5525.211922621776   -5525.211922621776   24934.358993264927  -31573.908000344854    1114.337084458150 
 4971000   -5528.835894186908   -5528.835894186908   24981.207114369437  -31568.454467992429    1058.411459436086 
 4972000   -5479.749774943182   -5479.749774943182   25058.468287544551  -31571.649445294515    1033.431382806786 
 4973000   -5525.873585169356   -5525.873585169356   25012.853021910720  -31570.368386590235    1031.641779510162 
 4974000   -5610.382724877483   -5610.382724877483   24777.081224086363  -31573.013475554893    1185.549526591048 
 4975000   -5612.255965512388   -5612.255965512388   24761.312834338110  -31572.261642332927    1198.692842482430 
 4976000   -5567.990041274061   -5567.990041274061   24891.972960377265  -31572.461416949904    1112.498415298580 
 4977000   -5550.624157376067   -5550.624157376067   24945.078682337284  -31575.770197299986    1080.067357586628 
 4978000   -5513.711360167199   -5513.711360167199   24920.648299806810  -31568.883986449007    1134.524326475002 
 4979000   -5585.642456026671   -5585.642456026671   24871.185835222313  -31572.732251644327    1115.903960395347 
 4980000   -5508.389953863007   -5508.389953863007   24976.860132649956  -31569.817239470416    1084.567152957454 
 4981000   -5542.129159446660   -5542.129159446660   24937.759453425082  -31574.293579417805    1094.404966546063 
 4982000   -5565.524799548388   -5565.524799548388   24876.493741538550  -31568.971940087424    1126.953399000491 
 4983000   -5539.200322006251   -5539.200322006251   24877.992225444497  -31571.867796638366    1154.675249187615 
 4984000   -5569.366801997476   -5569.366801997476   24861.327146074040  -31575.558771272350    1144.864823200831 
 4985000   -5504.154463917032   -5504.154463917032   24988.198855040908  -31568.598079423202    1076.244760465265 
 4986000   -5524.045811618387   -5524.045811618387   24937.616224832487  -31570.783612094983    1109.121575644110 
 4987000   -5467.159126482631   -5467.159126482631   25015.621431173007  -31569.694357574837    1086.913799919197 
 4988000   -5499.472975700563   -5499.472975700563   24979.042429129622  -31568.877537115834    1090.362132285648 
 4989000   -5533.066027050991   -5533.066027050991   24887.800614949840  -31569.571672968217    1148.705030967389 
 4990000   -5508.674312527834   -5508.674312527834   24959.260437813260  -31572.144482130043    1104.209731788951 
 4991000   -5523.818045762520   -5523.818045762520   24937.383653664881  -31570.436199033269    1109.234499605870 
 4992000   -5538.976105307236   -5538.976105307236   24973.616472649825  -31568.310176218652    1055.717598261596 
 4993000   -5503.666792655371   -5503.666792655371   24982.485924943452  -31567.595188849795    1081.442471250974 
 4994000   -5563.519571894427   -5563.519571894427   24933.821624515313  -31574.849896182433    1077.508699772693 
 4995000   -5536.528012101615   -5536.528012101615   24927.073122112692  -31574.648712070190    1111.047577855881 
 4996000   -5593.528535255580   -5593.528535255580   24856.045462041133  -31572.839751463936    1123.265754167224 
 4997000   -5560.238308411823   -5560.238308411823   24937.167412344919  -31574.192936470568    1076.787215713827 
 4998000   -5528.990033371276   -5528.990033371276   24974.968778915725  -31567.417214461933    1063.458402174931 
 4999000   -5593.377075497971   -5593.377075497971   24822.711619626789  -31573.623579401290    1157.534884276530 
 5000000   -5514.658384993669   -5514.658384993669   24928.207836709233  -31568.783623112729    1125.917401409825 
Loop time of 30.2493 on 8 procs for 5001 steps with 1503 atoms

Performance: 14.284 ns/day, 1.680 hours/ns, 165.326 timesteps/s
98.8% CPU use with 8 MPI tasks x 1 OpenMP threads

MPI task timing breakdown:
Section |  min time  |  avg time  |  max time  |%varavg| %total
---------------------------------------------------------------
Pair    | 0          | 0          | 0          |   0.0 |  0.00
Bond    | 0          | 0          | 0          |   0.0 |  0.00
Kspace  | 0          | 0          | 0          |   0.0 |  0.00
Neigh   | 0          | 0          | 0          |   0.0 |  0.00
Comm    | 0          | 0          | 0          |   0.0 |  0.00
Output  | 0          | 0          | 0          |   0.0 |  0.00
Modify  | 0          | 0          | 0          |   0.0 |  0.00
Other   |            | 30.25      |            |       |100.00

Nlocal:    187.875 ave 198 max 176 min
Histogram: 1 0 1 0 1 3 0 0 0 2
Nghost:    4589.88 ave 4611 max 4553 min
Histogram: 1 0 0 0 1 1 1 1 1 2
Neighs:    67346 ave 72357 max 61330 min
Histogram: 1 0 0 1 2 1 1 0 1 1

Total # of neighbors = 538768
Ave neighs/atom = 358.462
Ave special neighs/atom = 2
Neighbor list builds = 0
Dangerous builds = 0
Total wall time: 0:01:30
