LAMMPS (3 Mar 2020)
  using 1 OpenMP thread(s) per MPI task
Reading data file ...
  orthogonal box = (0 0 0) to (24 24 24)
  2 by 2 by 2 MPI processor grid
  reading atoms ...
  1503 atoms
  scanning bonds ...
  2 = max bonds/atom
  scanning angles ...
  1 = max angles/atom
  reading bonds ...
  1002 bonds
  reading angles ...
  501 angles
Finding 1-2 1-3 1-4 neighbors ...
  special bond factors lj:   0          0          0         
  special bond factors coul: 0          0          0         
  2 = max # of 1-2 neighbors
  1 = max # of 1-3 neighbors
  1 = max # of 1-4 neighbors
  2 = max # of special neighbors
  special bonds CPU = 0.00109954 secs
  read_data CPU = 0.0129406 secs
Setting atom values ...
  1 settings made for charge
Setting atom values ...
  2 settings made for charge
WARNING: Using 'neigh_modify every 1 delay 0 check yes' setting during minimization (src/min.cpp:190)
PPPM initialization ...
  using 12-bit tables for long-range coulomb (src/kspace.cpp:332)
  G vector (1/distance) = 0.315108
  grid = 24 24 24
  stencil order = 5
  estimated absolute RMS force accuracy = 0.00171047
  estimated relative force accuracy = 5.15102e-06
  using double precision MKL FFT
  3d grid and FFT values/proc = 6859 1728
Neighbor list info ...
  update every 1 steps, delay 0 steps, check yes
  max neighbors/atom: 2000, page size: 100000
  master list distance cutoff = 12
  ghost atom cutoff = 12
  binsize = 6, bins = 4 4 4
  3 neighbor lists, perpetual/occasional/extra = 3 0 0
  (1) pair lj/cut/coul/long, perpetual, skip from (3)
      attributes: half, newton on
      pair build: skip
      stencil: none
      bin: none
  (2) pair lj/cut/coul/long/soft, perpetual, skip from (3)
      attributes: half, newton on
      pair build: skip
      stencil: none
      bin: none
  (3) neighbor class addition, perpetual
      attributes: half, newton on
      pair build: half/bin/newton
      stencil: half/bin/3d/newton
      bin: standard
Setting up cg style minimization ...
  Unit style    : real
  Current step  : 0
Per MPI rank memory allocation (min/avg/max) = 10.15 | 10.15 | 10.16 Mbytes
Step Temp E_pair E_mol TotEng Press 
       0            0   -233.71461   0.56510211    -233.1495    17938.071 
      65            0   -6761.6412    354.29342   -6407.3477   -3299.1822 
Loop time of 0.24408 on 8 procs for 65 steps with 1503 atoms

98.6% CPU use with 8 MPI tasks x 1 OpenMP threads

Minimization stats:
  Stopping criterion = energy tolerance
  Energy initial, next-to-last, final = 
        -233.149503018      -6402.6047334     -6407.34774517
  Force two-norm initial, final = 680.783 105.829
  Force max component initial, final = 40.0779 8.86408
  Final line search alpha, max atom move = 0.00437529 0.0387829
  Iterations, force evaluations = 65 112

MPI task timing breakdown:
Section |  min time  |  avg time  |  max time  |%varavg| %total
---------------------------------------------------------------
Pair    | 0.16615    | 0.16837    | 0.17213    |   0.5 | 68.98
Bond    | 0.00057641 | 0.0006031  | 0.00063056 |   0.0 |  0.25
Kspace  | 0.052838   | 0.056677   | 0.058955   |   0.8 | 23.22
Neigh   | 0.0043793  | 0.0044237  | 0.0045029  |   0.1 |  1.81
Comm    | 0.011188   | 0.011342   | 0.011556   |   0.1 |  4.65
Output  | 0          | 0          | 0          |   0.0 |  0.00
Modify  | 0          | 0          | 0          |   0.0 |  0.00
Other   |            | 0.002666   |            |       |  1.09

Nlocal:    187.875 ave 192 max 186 min
Histogram: 2 2 0 2 0 1 0 0 0 1
Nghost:    4884.75 ave 4904 max 4876 min
Histogram: 3 1 1 0 0 2 0 0 0 1
Neighs:    72773.6 ave 75521 max 70955 min
Histogram: 1 0 1 3 2 0 0 0 0 1

Total # of neighbors = 582189
Ave neighs/atom = 387.351
Ave special neighs/atom = 2
Neighbor list builds = 3
Dangerous builds = 0
Finding SHAKE clusters ...
  0 = # of size 2 clusters
  0 = # of size 3 clusters
  0 = # of size 4 clusters
  501 = # of frozen angles
  find clusters CPU = 0.000363994 secs
PPPM initialization ...
  using 12-bit tables for long-range coulomb (src/kspace.cpp:332)
  G vector (1/distance) = 0.315108
  grid = 24 24 24
  stencil order = 5
  estimated absolute RMS force accuracy = 0.00171047
  estimated relative force accuracy = 5.15102e-06
  using double precision MKL FFT
  3d grid and FFT values/proc = 6859 1728
Neighbor list info ...
  update every 1 steps, delay 10 steps, check yes
  max neighbors/atom: 2000, page size: 100000
  master list distance cutoff = 12
  ghost atom cutoff = 12
  binsize = 6, bins = 4 4 4
  3 neighbor lists, perpetual/occasional/extra = 3 0 0
  (1) pair lj/cut/coul/long, perpetual, skip from (3)
      attributes: half, newton on
      pair build: skip
      stencil: none
      bin: none
  (2) pair lj/cut/coul/long/soft, perpetual, skip from (3)
      attributes: half, newton on
      pair build: skip
      stencil: none
      bin: none
  (3) neighbor class addition, perpetual
      attributes: half, newton on
      pair build: half/bin/newton
      stencil: half/bin/3d/newton
      bin: standard
Setting up Verlet run ...
  Unit style    : real
  Current step  : 65
  Time step     : 1
Per MPI rank memory allocation (min/avg/max) = 9.904 | 9.905 | 9.906 Mbytes
Step Temp TotEng PotEng E_bond E_angle E_dihed E_coul E_long E_vdwl 
      65     300.000000   -5866.503903   -6761.641161       0.000000       0.000000       0.000000   23646.676634  -31788.136815    1379.819020 
   10000     285.637444   -4670.532950   -5522.815345       0.000000       0.000000       0.000000   25141.491366  -31778.873201    1114.566490 
   20000     310.245138   -4652.322474   -5578.029082       0.000000       0.000000       0.000000   25042.802680  -31783.797753    1162.965992 
   30000     307.273051   -4524.342946   -5441.181467       0.000000       0.000000       0.000000   25315.560748  -31778.530676    1021.788461 
   40000     292.783546   -4657.617292   -5531.222162       0.000000       0.000000       0.000000   25169.023376  -31780.807423    1080.561885 
   50000     293.941763   -4641.055626   -5518.116372       0.000000       0.000000       0.000000   25207.669018  -31779.682030    1053.896640 
   60000     303.272182   -4621.055040   -5525.955806       0.000000       0.000000       0.000000   25193.764221  -31781.856842    1062.136815 
   70000     293.156153   -4707.199613   -5581.916264       0.000000       0.000000       0.000000   25125.377160  -31779.995867    1072.702443 
   80000     297.224506   -4589.816251   -5476.672015       0.000000       0.000000       0.000000   25252.346551  -31778.291063    1049.272497 
   90000     297.569458   -4700.264490   -5588.149521       0.000000       0.000000       0.000000   25062.174918  -31779.820258    1129.495820 
  100000     289.912669   -4687.916143   -5552.954915       0.000000       0.000000       0.000000   25125.489124  -31780.982184    1102.538146 
  110000     305.274102   -4648.450693   -5559.324769       0.000000       0.000000       0.000000   25163.335816  -31777.578409    1054.917825 
  120000     300.738420   -4684.651032   -5581.991580       0.000000       0.000000       0.000000   25121.328805  -31779.510527    1076.190143 
  130000     295.644769   -4655.157437   -5537.299597       0.000000       0.000000       0.000000   25142.756556  -31776.753705    1096.697552 
  140000     300.111494   -4678.021604   -5573.491535       0.000000       0.000000       0.000000   25105.401791  -31776.826288    1097.932962 
  150000     294.297184   -4627.350097   -5505.471345       0.000000       0.000000       0.000000   25215.759242  -31777.365821    1056.135234 
  160000     286.772422   -4692.177351   -5547.846282       0.000000       0.000000       0.000000   25108.795672  -31781.466530    1124.824577 
  170000     304.853433   -4621.860658   -5531.479546       0.000000       0.000000       0.000000   25114.861844  -31780.172715    1133.831324 
  180000     306.011638   -4604.245730   -5517.320460       0.000000       0.000000       0.000000   25242.699882  -31776.039906    1016.019565 
  190000     292.403339   -4671.293943   -5543.764354       0.000000       0.000000       0.000000   25110.742727  -31776.062848    1121.555767 
  200000     304.948296   -4624.046876   -5533.948815       0.000000       0.000000       0.000000   25159.268268  -31779.015106    1085.798023 
  210000     302.097999   -4625.463954   -5526.861203       0.000000       0.000000       0.000000   25178.207878  -31778.419822    1073.350742 
  220000     312.592642   -4555.127083   -5487.838150       0.000000       0.000000       0.000000   25190.509245  -31777.561229    1099.213833 
  230000     302.623498   -4610.834637   -5513.799863       0.000000       0.000000       0.000000   25243.173635  -31775.070271    1018.096773 
  240000     312.739482   -4583.643404   -5516.792611       0.000000       0.000000       0.000000   25194.853718  -31784.894790    1073.248461 
  250000     308.609488   -4584.241067   -5505.067237       0.000000       0.000000       0.000000   25200.190336  -31780.489513    1075.231940 
  260000     306.658036   -4578.547572   -5493.551017       0.000000       0.000000       0.000000   25218.547763  -31777.259528    1065.160749 
  270000     303.045261   -4611.683664   -5515.907345       0.000000       0.000000       0.000000   25167.801117  -31780.013226    1096.304764 
  280000     295.910936   -4606.568007   -5489.504352       0.000000       0.000000       0.000000   25154.547547  -31779.297219    1135.245320 
  290000     291.440806   -4644.989539   -5514.587952       0.000000       0.000000       0.000000   25165.254145  -31778.036380    1098.194283 
  300000     301.947646   -4598.038649   -5498.987274       0.000000       0.000000       0.000000   25163.317971  -31786.051837    1123.746592 
  310000     293.881687   -4673.506468   -5550.387959       0.000000       0.000000       0.000000   25101.515770  -31780.592500    1128.688771 
  320000     302.896993   -4591.567868   -5495.349148       0.000000       0.000000       0.000000   25275.666061  -31781.730022    1010.714814 
  330000     300.552233   -4676.926031   -5573.711036       0.000000       0.000000       0.000000   25098.986417  -31783.525056    1110.827603 
  340000     306.039749   -4651.019968   -5564.178576       0.000000       0.000000       0.000000   25089.573231  -31779.496192    1125.744385 
  350000     305.984252   -4618.266966   -5531.259980       0.000000       0.000000       0.000000   25234.997669  -31782.352003    1016.094353 
  360000     293.090921   -4646.721991   -5521.244003       0.000000       0.000000       0.000000   25125.067498  -31778.103108    1131.791607 
  370000     278.427702   -4723.561275   -5554.331306       0.000000       0.000000       0.000000   25127.026195  -31778.056863    1096.699362 
  380000     298.827355   -4650.829380   -5542.467710       0.000000       0.000000       0.000000   25155.726412  -31777.395636    1079.201514 
  390000     298.799527   -4602.749760   -5494.305059       0.000000       0.000000       0.000000   25193.480276  -31783.246210    1095.460876 
  400000     296.426045   -4654.728508   -5539.201833       0.000000       0.000000       0.000000   25139.148034  -31779.539431    1101.189564 
  410000     305.472084   -4607.343477   -5518.808289       0.000000       0.000000       0.000000   25143.753499  -31782.835626    1120.273838 
  420000     303.400599   -4623.332613   -5528.616548       0.000000       0.000000       0.000000   25186.982860  -31784.608497    1069.009090 
  430000     299.669915   -4649.824624   -5543.976977       0.000000       0.000000       0.000000   25222.834649  -31781.137262    1014.325636 
  440000     294.504588   -4667.155053   -5545.895152       0.000000       0.000000       0.000000   25147.095077  -31779.930315    1086.940086 
  450000     303.193556   -4633.935559   -5538.601721       0.000000       0.000000       0.000000   25142.992639  -31779.105379    1097.511019 
  460000     296.706001   -4603.886854   -5489.195508       0.000000       0.000000       0.000000   25170.256142  -31780.994441    1121.542791 
  470000     295.807626   -4660.498222   -5543.126313       0.000000       0.000000       0.000000   25105.479634  -31777.857806    1129.251860 
  480000     294.875104   -4651.671923   -5531.517562       0.000000       0.000000       0.000000   25152.153615  -31780.768315    1097.097138 
  490000     304.611593   -4621.817142   -5530.714428       0.000000       0.000000       0.000000   25187.920494  -31777.069710    1058.434787 
  500000     300.817516   -4573.267460   -5470.844016       0.000000       0.000000       0.000000   25265.557594  -31780.114352    1043.712742 
  510000     283.611916   -4737.064486   -5583.303129       0.000000       0.000000       0.000000   25096.677964  -31784.348217    1104.367125 
  520000     307.238371   -4638.303904   -5555.038949       0.000000       0.000000       0.000000   25163.275625  -31781.727454    1063.412881 
  530000     297.205872   -4648.542112   -5535.342276       0.000000       0.000000       0.000000   25176.928846  -31783.099960    1070.828839 
  540000     299.138496   -4597.155297   -5489.722006       0.000000       0.000000       0.000000   25173.058555  -31777.724531    1114.943969 
  550000     294.202199   -4586.691942   -5464.529775       0.000000       0.000000       0.000000   25256.579900  -31782.622102    1061.512427 
  560000     313.587177   -4549.018631   -5484.697184       0.000000       0.000000       0.000000   25272.398358  -31782.819539    1025.723997 
  570000     294.515892   -4665.648746   -5544.422572       0.000000       0.000000       0.000000   25106.309451  -31778.727931    1127.995908 
  580000     299.795137   -4608.610693   -5503.136681       0.000000       0.000000       0.000000   25161.932221  -31778.603342    1113.534440 
  590000     305.831300   -4624.490325   -5537.026962       0.000000       0.000000       0.000000   25135.377798  -31781.964392    1109.559632 
  600000     304.643140   -4598.798543   -5507.789960       0.000000       0.000000       0.000000   25226.766890  -31780.237376    1045.680526 
  610000     298.635212   -4578.541033   -5469.606049       0.000000       0.000000       0.000000   25263.744229  -31779.528066    1046.177789 
  620000     305.538784   -4635.777766   -5547.441596       0.000000       0.000000       0.000000   25137.124131  -31782.051450    1097.485723 
  630000     285.170994   -4644.127176   -5495.017781       0.000000       0.000000       0.000000   25210.354819  -31775.474618    1070.102018 
  640000     296.933847   -4605.654339   -5491.642837       0.000000       0.000000       0.000000   25272.163845  -31781.770249    1017.963567 
  650000     297.445287   -4701.981234   -5589.495763       0.000000       0.000000       0.000000   25133.890254  -31783.910019    1060.524001 
  660000     296.135903   -4688.503017   -5572.110616       0.000000       0.000000       0.000000   25072.666734  -31781.316766    1136.539416 
  670000     310.166554   -4626.192979   -5551.665109       0.000000       0.000000       0.000000   25077.366636  -31780.911455    1151.879710 
  680000     302.010036   -4617.591510   -5518.726297       0.000000       0.000000       0.000000   25157.051805  -31784.402991    1108.624888 
  690000     305.065765   -4621.990722   -5532.243164       0.000000       0.000000       0.000000   25133.719567  -31782.583774    1116.621042 
  700000     298.123224   -4713.853638   -5603.390988       0.000000       0.000000       0.000000   25073.569260  -31781.605746    1104.645498 
  710000     298.214179   -4624.081173   -5513.889913       0.000000       0.000000       0.000000   25159.752431  -31775.771405    1102.129060 
  720000     303.784896   -4596.509889   -5502.940486       0.000000       0.000000       0.000000   25213.584331  -31780.266556    1063.741739 
  730000     304.712355   -4581.213743   -5490.411684       0.000000       0.000000       0.000000   25149.518008  -31781.323283    1141.393591 
  740000     304.166549   -4589.095530   -5496.664897       0.000000       0.000000       0.000000   25252.531127  -31782.178141    1032.982116 
  750000     314.094559   -4605.945572   -5543.138047       0.000000       0.000000       0.000000   25173.193444  -31778.271261    1061.939770 
  760000     301.667099   -4666.537393   -5566.648926       0.000000       0.000000       0.000000   25020.684947  -31780.918506    1193.584633 
  770000     311.717663   -4588.276434   -5518.376748       0.000000       0.000000       0.000000   25201.028978  -31780.766964    1061.361238 
  780000     304.249305   -4587.252473   -5495.068769       0.000000       0.000000       0.000000   25201.300223  -31779.170251    1082.801258 
  790000     303.451922   -4648.643537   -5554.080607       0.000000       0.000000       0.000000   25166.916579  -31782.882590    1061.885404 
  800000     290.957020   -4676.589724   -5544.744622       0.000000       0.000000       0.000000   25057.640638  -31778.678697    1176.293437 
  810000     301.094689   -4641.091032   -5539.494612       0.000000       0.000000       0.000000   25138.495898  -31777.553552    1099.563041 
  820000     309.160849   -4588.671909   -5511.143225       0.000000       0.000000       0.000000   25117.909779  -31780.560180    1151.507175 
  830000     296.621743   -4684.809660   -5569.866907       0.000000       0.000000       0.000000   25029.961254  -31773.718554    1173.890393 
  840000     307.684375   -4581.685056   -5499.750880       0.000000       0.000000       0.000000   25203.194293  -31779.003955    1076.058782 
  850000     303.146339   -4653.537102   -5558.062376       0.000000       0.000000       0.000000   25138.942117  -31780.389061    1083.384567 
  860000     294.712270   -4577.333271   -5456.693048       0.000000       0.000000       0.000000   25290.703806  -31780.879624    1033.482769 
  870000     295.708710   -4588.123978   -5470.456923       0.000000       0.000000       0.000000   25264.710133  -31774.794235    1039.627179 
  880000     303.911405   -4611.624656   -5518.432728       0.000000       0.000000       0.000000   25189.912325  -31781.320816    1072.975763 
  890000     306.978585   -4609.722294   -5525.682191       0.000000       0.000000       0.000000   25098.130025  -31782.117669    1158.305453 
  900000     314.056716   -4603.332481   -5540.412040       0.000000       0.000000       0.000000   25141.888004  -31780.164816    1097.864772 
  910000     302.669366   -4631.057845   -5534.159932       0.000000       0.000000       0.000000   25107.256464  -31783.785116    1142.368720 
  920000     298.735091   -4740.529445   -5631.892478       0.000000       0.000000       0.000000   24991.217026  -31782.890478    1159.780973 
  930000     294.868317   -4648.902375   -5528.727764       0.000000       0.000000       0.000000   25139.156092  -31778.076959    1110.193103 
  940000     323.962428   -4492.820112   -5459.456243       0.000000       0.000000       0.000000   25270.333677  -31778.355553    1048.565633 
  950000     307.910819   -4572.678490   -5491.419976       0.000000       0.000000       0.000000   25161.313332  -31779.337861    1126.604552 
  960000     306.247692   -4598.836124   -5512.615188       0.000000       0.000000       0.000000   25187.579978  -31779.993295    1079.798129 
  970000     305.550158   -4664.149499   -5575.847268       0.000000       0.000000       0.000000   25120.846282  -31780.204749    1083.511198 
  980000     300.694525   -4617.321496   -5514.531073       0.000000       0.000000       0.000000   25177.476949  -31777.536876    1085.528854 
  990000     288.174726   -4696.925541   -5556.778655       0.000000       0.000000       0.000000   25099.526307  -31785.156954    1128.851992 
 1000000     304.086588   -4594.292087   -5501.622869       0.000000       0.000000       0.000000   25275.424698  -31781.001867    1003.954301 
 1000065     302.274222   -4624.087460   -5526.010521       0.000000       0.000000       0.000000   25211.901294  -31777.957138    1040.045323 
Loop time of 1974.95 on 8 procs for 1000000 steps with 1503 atoms

Performance: 43.748 ns/day, 0.549 hours/ns, 506.342 timesteps/s
99.2% CPU use with 8 MPI tasks x 1 OpenMP threads

MPI task timing breakdown:
Section |  min time  |  avg time  |  max time  |%varavg| %total
---------------------------------------------------------------
Pair    | 976.92     | 985.88     | 998.39     |  20.5 | 49.92
Bond    | 0.27085    | 0.31025    | 0.35153    |   5.1 |  0.02
Kspace  | 522.74     | 534.01     | 543.01     |  26.4 | 27.04
Neigh   | 71.106     | 71.153     | 71.195     |   0.4 |  3.60
Comm    | 91.656     | 94.048     | 97.707     |  18.4 |  4.76
Output  | 0.0041389  | 0.0046819  | 0.0083021  |   2.0 |  0.00
Modify  | 268.08     | 279.37     | 286.81     |  32.5 | 14.15
Other   |            | 10.17      |            |       |  0.51

Nlocal:    187.875 ave 197 max 179 min
Histogram: 1 1 1 0 0 2 0 2 0 1
Nghost:    4548.12 ave 4599 max 4490 min
Histogram: 1 0 2 0 1 0 1 0 2 1
Neighs:    66865.1 ave 69604 max 63433 min
Histogram: 1 0 1 0 0 1 2 2 0 1

Total # of neighbors = 534921
Ave neighs/atom = 355.902
Ave special neighs/atom = 2
Neighbor list builds = 43597
Dangerous builds = 0
PPPM initialization ...
  using 12-bit tables for long-range coulomb (src/kspace.cpp:332)
  G vector (1/distance) = 0.312849
  grid = 24 24 24
  stencil order = 5
  estimated absolute RMS force accuracy = 0.00187964
  estimated relative force accuracy = 5.66049e-06
  using double precision MKL FFT
  3d grid and FFT values/proc = 6859 1728
Neighbor list info ...
  update every 1 steps, delay 10 steps, check yes
  max neighbors/atom: 2000, page size: 100000
  master list distance cutoff = 12
  ghost atom cutoff = 12
  binsize = 6, bins = 5 5 5
  3 neighbor lists, perpetual/occasional/extra = 3 0 0
  (1) pair lj/cut/coul/long, perpetual, skip from (3)
      attributes: half, newton on
      pair build: skip
      stencil: none
      bin: none
  (2) pair lj/cut/coul/long/soft, perpetual, skip from (3)
      attributes: half, newton on
      pair build: skip
      stencil: none
      bin: none
  (3) neighbor class addition, perpetual
      attributes: half, newton on
      pair build: half/bin/newton
      stencil: half/bin/3d/newton
      bin: standard
Setting up Verlet run ...
  Unit style    : real
  Current step  : 0
  Time step     : 1
Per MPI rank memory allocation (min/avg/max) = 10.91 | 10.91 | 10.91 Mbytes
Step Temp TotEng PotEng E_bond E_angle E_dihed E_coul E_long E_vdwl 
       0     302.274222   -4624.088360   -5526.011421       0.000000       0.000000       0.000000   24984.712665  -31550.769409    1040.045323 
   10000     293.644735   -4659.357659   -5535.532136       0.000000       0.000000       0.000000   24893.195220  -31551.992334    1123.264977 
   20000     298.573230   -4666.675469   -5557.555542       0.000000       0.000000       0.000000   24854.285652  -31556.605487    1144.764293 
   30000     299.225399   -4608.096074   -5500.922084       0.000000       0.000000       0.000000   24967.885181  -31556.415731    1087.608466 
   40000     305.644664   -4531.108049   -5443.087804       0.000000       0.000000       0.000000   25077.041183  -31550.894175    1030.765188 
   50000     298.472302   -4642.396806   -5532.975732       0.000000       0.000000       0.000000   24904.214880  -31553.347091    1116.156479 
   60000     298.256570   -4633.196040   -5523.131267       0.000000       0.000000       0.000000   24984.889010  -31552.728666    1044.708390 
   70000     306.067927   -4561.070287   -5474.312971       0.000000       0.000000       0.000000   24992.108115  -31551.527262    1085.106176 
   80000     298.227845   -4530.368309   -5420.217828       0.000000       0.000000       0.000000   25093.626848  -31547.488971    1033.644295 
   90000     297.008757   -4569.986363   -5456.198379       0.000000       0.000000       0.000000   24988.363650  -31551.536219    1106.974191 
  100000     304.911023   -4670.056454   -5579.847177       0.000000       0.000000       0.000000   24818.128845  -31554.010726    1156.034704 
  110000     298.672661   -4623.056082   -5514.232839       0.000000       0.000000       0.000000   24953.785128  -31553.976249    1085.958282 
  120000     312.645721   -4583.082239   -5515.951683       0.000000       0.000000       0.000000   24928.786534  -31558.182827    1113.444609 
  130000     309.526419   -4615.368266   -5538.930367       0.000000       0.000000       0.000000   25000.538703  -31556.538887    1017.069817 
  140000     294.513126   -4641.269232   -5520.034805       0.000000       0.000000       0.000000   24912.358613  -31552.532136    1120.138718 
  150000     302.748875   -4614.196763   -5517.536090       0.000000       0.000000       0.000000   24889.634760  -31553.490735    1146.319885 
  160000     302.842449   -4601.395387   -5505.013919       0.000000       0.000000       0.000000   24953.979987  -31555.435382    1096.441476 
  170000     304.942742   -4578.033382   -5487.918747       0.000000       0.000000       0.000000   24977.696592  -31553.477244    1087.861904 
  180000     300.712747   -4586.948007   -5484.211952       0.000000       0.000000       0.000000   24970.569542  -31551.165210    1096.383716 
  190000     306.002221   -4590.648164   -5503.694795       0.000000       0.000000       0.000000   25012.692801  -31554.771740    1038.384144 
  200000     310.698273   -4595.201540   -5522.260208       0.000000       0.000000       0.000000   24965.685182  -31555.622366    1067.676976 
  210000     310.064287   -4543.379970   -5468.546956       0.000000       0.000000       0.000000   25004.093459  -31553.856442    1081.216026 
  220000     295.380261   -4657.769682   -5539.122604       0.000000       0.000000       0.000000   24892.666193  -31556.995949    1125.207152 
  230000     297.295372   -4646.066980   -5533.134195       0.000000       0.000000       0.000000   24962.318104  -31554.228943    1058.776644 
  240000     307.574113   -4586.568665   -5504.305492       0.000000       0.000000       0.000000   25052.300604  -31554.024096     997.418000 
  250000     310.572254   -4612.352933   -5539.035587       0.000000       0.000000       0.000000   24889.593992  -31553.156021    1124.526442 
  260000     301.973970   -4657.451655   -5558.478825       0.000000       0.000000       0.000000   24841.512071  -31553.794202    1153.803306 
  270000     292.031393   -4662.991133   -5534.351734       0.000000       0.000000       0.000000   24913.462997  -31547.989759    1100.175028 
  280000     298.335037   -4625.795372   -5515.964728       0.000000       0.000000       0.000000   24988.669310  -31551.922541    1047.288503 
  290000     295.660328   -4643.200587   -5525.389172       0.000000       0.000000       0.000000   24905.944767  -31559.326928    1127.992989 
  300000     284.207482   -4640.661815   -5488.677501       0.000000       0.000000       0.000000   25008.793510  -31549.258686    1051.787675 
  310000     309.552194   -4643.923248   -5567.562256       0.000000       0.000000       0.000000   24862.398502  -31554.448757    1124.487999 
  320000     282.397005   -4636.897484   -5479.511088       0.000000       0.000000       0.000000   25028.982090  -31556.573372    1048.080194 
  330000     314.082448   -4521.766369   -5458.922707       0.000000       0.000000       0.000000   25052.582004  -31553.109399    1041.604689 
  340000     297.778561   -4597.598841   -5486.107788       0.000000       0.000000       0.000000   24936.851239  -31550.530366    1127.571339 
  350000     301.311038   -4500.888636   -5399.937757       0.000000       0.000000       0.000000   25126.996991  -31548.729008    1021.794261 
  360000     297.670111   -4646.857330   -5535.042687       0.000000       0.000000       0.000000   24898.464356  -31556.197762    1122.690719 
  370000     301.658308   -4613.040410   -5513.125712       0.000000       0.000000       0.000000   24986.266521  -31554.112668    1054.720435 
  380000     311.808800   -4525.882939   -5456.255186       0.000000       0.000000       0.000000   25024.514968  -31550.914906    1070.144753 
  390000     286.065149   -4709.847880   -5563.406457       0.000000       0.000000       0.000000   24836.903559  -31556.126271    1155.816254 
  400000     302.681490   -4583.794946   -5486.933209       0.000000       0.000000       0.000000   25008.404191  -31550.539040    1055.201640 
  410000     299.955561   -4627.821288   -5522.825949       0.000000       0.000000       0.000000   24957.901550  -31551.039102    1070.311602 
  420000     297.652540   -4615.892230   -5504.025157       0.000000       0.000000       0.000000   24937.811263  -31553.699334    1111.862914 
  430000     299.515633   -4600.749948   -5494.441955       0.000000       0.000000       0.000000   24937.515717  -31555.392394    1123.434721 
  440000     300.551466   -4631.770983   -5528.553700       0.000000       0.000000       0.000000   24935.755408  -31556.541494    1092.232386 
  450000     302.510465   -4602.950600   -5505.578562       0.000000       0.000000       0.000000   24949.385404  -31553.076287    1098.112321 
  460000     310.302477   -4532.059521   -5457.937215       0.000000       0.000000       0.000000   25082.566978  -31552.545992    1012.041799 
  470000     302.716595   -4609.735058   -5512.978069       0.000000       0.000000       0.000000   25013.854958  -31552.636931    1025.803903 
  480000     291.252057   -4678.303633   -5547.338858       0.000000       0.000000       0.000000   24877.167364  -31552.401757    1127.895536 
  490000     293.732596   -4639.455072   -5515.891707       0.000000       0.000000       0.000000   24913.198474  -31554.122927    1125.032746 
  500000     306.349895   -4595.621063   -5509.705079       0.000000       0.000000       0.000000   24965.436590  -31553.831767    1078.690098 
  510000     298.448746   -4613.422461   -5503.931103       0.000000       0.000000       0.000000   24940.167268  -31555.026833    1110.928463 
  520000     299.274111   -4647.529709   -5540.501066       0.000000       0.000000       0.000000   24992.861122  -31557.133687    1023.771499 
  530000     285.027053   -4630.123155   -5480.584271       0.000000       0.000000       0.000000   25007.891893  -31551.718371    1063.242207 
  540000     305.615363   -4576.945247   -5488.837574       0.000000       0.000000       0.000000   25020.594883  -31550.944796    1041.512339 
  550000     293.589027   -4610.756781   -5486.765037       0.000000       0.000000       0.000000   24977.553853  -31553.372113    1089.053223 
  560000     308.335744   -4633.571347   -5553.580721       0.000000       0.000000       0.000000   24874.024526  -31553.352866    1125.747619 
  570000     301.450419   -4657.106127   -5556.571132       0.000000       0.000000       0.000000   24924.153064  -31554.654782    1073.930585 
  580000     294.274436   -4617.911306   -5495.964679       0.000000       0.000000       0.000000   25062.252358  -31546.980905     988.763867 
  590000     296.358547   -4708.373068   -5592.644993       0.000000       0.000000       0.000000   24848.177046  -31555.011369    1114.189331 
  600000     292.926809   -4670.644760   -5544.677096       0.000000       0.000000       0.000000   24858.789638  -31553.510799    1150.044065 
  610000     294.284081   -4610.911060   -5488.993211       0.000000       0.000000       0.000000   24921.423531  -31554.288093    1143.871351 
  620000     299.959327   -4615.152442   -5510.168342       0.000000       0.000000       0.000000   24944.141853  -31553.571456    1099.261261 
  630000     293.133526   -4641.585962   -5516.235098       0.000000       0.000000       0.000000   25012.209015  -31553.418163    1024.974049 
  640000     304.377404   -4570.778254   -5478.976770       0.000000       0.000000       0.000000   25032.777489  -31551.821034    1040.066775 
  650000     312.868751   -4610.623572   -5544.158493       0.000000       0.000000       0.000000   24906.731197  -31555.474393    1104.584703 
  660000     293.999163   -4632.312294   -5509.544309       0.000000       0.000000       0.000000   24962.251538  -31551.384909    1079.589062 
  670000     302.722594   -4604.134922   -5507.395831       0.000000       0.000000       0.000000   24981.338423  -31553.106069    1064.371815 
  680000     300.212513   -4628.663220   -5524.434572       0.000000       0.000000       0.000000   24817.484215  -31553.843881    1211.925094 
  690000     305.245863   -4589.162184   -5499.952001       0.000000       0.000000       0.000000   24987.969040  -31553.144160    1065.223118 
  700000     295.342255   -4751.116462   -5632.355983       0.000000       0.000000       0.000000   24812.356645  -31558.327390    1113.614763 
  710000     297.123607   -4639.610860   -5526.165561       0.000000       0.000000       0.000000   24927.326380  -31550.620989    1097.129048 
  720000     301.263787   -4598.313093   -5497.221228       0.000000       0.000000       0.000000   24978.005932  -31557.576953    1082.349793 
  730000     297.320396   -4579.790434   -5466.932315       0.000000       0.000000       0.000000   24988.192176  -31550.528530    1095.404039 
  740000     298.088843   -4628.655071   -5518.089836       0.000000       0.000000       0.000000   24901.672475  -31552.089472    1132.327161 
  750000     299.341765   -4602.162723   -5495.335947       0.000000       0.000000       0.000000   24961.543785  -31551.165673    1094.285942 
  760000     296.948088   -4626.722410   -5512.753399       0.000000       0.000000       0.000000   24934.758180  -31553.605229    1106.093650 
  770000     302.841696   -4628.028844   -5531.645129       0.000000       0.000000       0.000000   24935.675670  -31548.378427    1081.057627 
  780000     296.352031   -4649.626906   -5533.879389       0.000000       0.000000       0.000000   24921.063050  -31553.755310    1098.812871 
  790000     304.981102   -4625.525525   -5535.525349       0.000000       0.000000       0.000000   24941.185692  -31553.211446    1076.500405 
  800000     295.559831   -4635.117367   -5517.006090       0.000000       0.000000       0.000000   24943.086373  -31554.643500    1094.551037 
  810000     306.108140   -4590.864677   -5504.227347       0.000000       0.000000       0.000000   24986.968948  -31550.713759    1059.517464 
  820000     295.304332   -4573.547538   -5454.673903       0.000000       0.000000       0.000000   25103.877515  -31554.191440     995.640022 
  830000     304.328434   -4639.389937   -5547.442338       0.000000       0.000000       0.000000   24991.756557  -31554.209133    1015.010238 
  840000     310.297225   -4652.882189   -5578.744213       0.000000       0.000000       0.000000   24832.825736  -31546.847228    1135.277279 
  850000     283.531897   -4675.459343   -5521.459225       0.000000       0.000000       0.000000   24847.585579  -31552.651836    1183.607032 
  860000     305.394964   -4566.940900   -5478.175601       0.000000       0.000000       0.000000   25050.811458  -31553.394512    1024.407453 
  870000     299.271799   -4640.994783   -5533.959242       0.000000       0.000000       0.000000   24884.569665  -31552.490400    1133.961492 
  880000     301.122441   -4608.263075   -5506.749463       0.000000       0.000000       0.000000   24954.479105  -31553.768461    1092.539894 
  890000     297.866630   -4646.787383   -5535.559111       0.000000       0.000000       0.000000   24849.122187  -31555.776441    1171.095144 
  900000     308.777596   -4598.896082   -5520.223852       0.000000       0.000000       0.000000   24969.356750  -31555.965677    1066.385075 
  910000     313.956962   -4567.375474   -5504.157387       0.000000       0.000000       0.000000   24946.001639  -31555.627319    1105.468293 
  920000     305.311635   -4595.429329   -5506.415394       0.000000       0.000000       0.000000   25017.136605  -31551.651637    1028.099639 
  930000     302.853450   -4553.364855   -5457.016210       0.000000       0.000000       0.000000   24994.383611  -31549.493844    1098.094023 
  940000     300.139091   -4654.842416   -5550.394691       0.000000       0.000000       0.000000   24863.415230  -31554.692273    1140.882351 
  950000     285.116974   -4668.732947   -5519.462368       0.000000       0.000000       0.000000   24967.231119  -31551.460503    1064.767016 
  960000     288.736610   -4716.012523   -5577.542179       0.000000       0.000000       0.000000   24830.190472  -31554.197195    1146.464543 
  970000     301.335401   -4611.850634   -5510.972448       0.000000       0.000000       0.000000   24888.742077  -31553.809948    1154.095423 
  980000     300.191039   -4590.972274   -5486.679552       0.000000       0.000000       0.000000   25002.652717  -31553.641852    1064.309583 
  990000     305.237522   -4583.828739   -5494.593668       0.000000       0.000000       0.000000   25081.406214  -31553.753602     977.753720 
 1000000     293.272615   -4685.413980   -5560.478127       0.000000       0.000000       0.000000   24886.770709  -31549.796709    1102.547873 
 1010000     291.456439   -4668.379399   -5538.024459       0.000000       0.000000       0.000000   24856.466723  -31552.735536    1158.244354 
 1020000     290.366400   -4675.605944   -5541.998555       0.000000       0.000000       0.000000   24959.415458  -31555.805742    1054.391729 
 1030000     302.124607   -4643.438276   -5544.914917       0.000000       0.000000       0.000000   24969.597728  -31555.894875    1041.382229 
 1040000     298.969252   -4665.309833   -5557.371555       0.000000       0.000000       0.000000   24962.107924  -31557.675684    1038.196205 
 1050000     310.895322   -4572.422554   -5500.069175       0.000000       0.000000       0.000000   24855.810667  -31554.993183    1199.113340 
 1060000     286.022463   -4615.936639   -5469.367851       0.000000       0.000000       0.000000   24949.946140  -31548.560037    1129.246046 
 1070000     294.265691   -4615.326566   -5493.353844       0.000000       0.000000       0.000000   24993.962646  -31556.165173    1068.848683 
 1080000     297.341796   -4669.847494   -5557.053226       0.000000       0.000000       0.000000   24911.091653  -31554.303317    1086.158438 
 1090000     300.440175   -4588.126557   -5484.577204       0.000000       0.000000       0.000000   24987.020932  -31552.667208    1081.069072 
 1100000     291.986535   -4679.347870   -5550.574625       0.000000       0.000000       0.000000   24871.152096  -31554.013842    1132.287121 
 1110000     299.570450   -4626.470701   -5520.326271       0.000000       0.000000       0.000000   24912.750314  -31554.387534    1121.310949 
 1120000     306.785427   -4622.652005   -5538.035559       0.000000       0.000000       0.000000   24917.645402  -31547.773165    1092.092204 
 1130000     305.031382   -4555.465976   -5465.615825       0.000000       0.000000       0.000000   25076.065675  -31552.469012    1010.787513 
 1140000     306.922939   -4585.289389   -5501.083248       0.000000       0.000000       0.000000   24999.844023  -31550.465091    1049.537820 
 1150000     297.418447   -4648.428267   -5535.862711       0.000000       0.000000       0.000000   24946.567432  -31551.555716    1069.125573 
 1160000     293.551554   -4676.777599   -5552.674043       0.000000       0.000000       0.000000   24889.073194  -31554.790147    1113.042909 
 1170000     307.402952   -4611.513446   -5528.739564       0.000000       0.000000       0.000000   24956.977891  -31549.856633    1064.139178 
 1180000     295.925412   -4624.720139   -5507.699679       0.000000       0.000000       0.000000   24957.838941  -31553.446164    1087.907544 
 1190000     296.095200   -4652.139362   -5535.625512       0.000000       0.000000       0.000000   24955.058089  -31552.112597    1061.428996 
 1200000     310.568424   -4547.653296   -5474.324522       0.000000       0.000000       0.000000   24998.252005  -31549.013306    1076.436779 
 1210000     293.253784   -4648.397060   -5523.405020       0.000000       0.000000       0.000000   24883.280233  -31549.972939    1143.287686 
 1220000     304.773062   -4644.670540   -5554.049617       0.000000       0.000000       0.000000   24947.535704  -31551.115927    1049.530605 
 1230000     296.249584   -4626.778405   -5510.725205       0.000000       0.000000       0.000000   24988.051736  -31553.748299    1054.971357 
 1240000     305.903143   -4601.302514   -5514.053515       0.000000       0.000000       0.000000   24952.109658  -31550.590633    1084.427459 
 1250000     291.963543   -4614.807108   -5485.965258       0.000000       0.000000       0.000000   25042.300973  -31550.110849    1021.844618 
 1260000     287.126116   -4651.817327   -5508.541608       0.000000       0.000000       0.000000   24970.359984  -31554.694464    1075.792871 
 1270000     295.875383   -4672.628113   -5555.458377       0.000000       0.000000       0.000000   24916.714606  -31552.184284    1080.011301 
 1280000     301.245012   -4628.114521   -5526.966635       0.000000       0.000000       0.000000   24878.339480  -31556.056000    1150.749885 
 1290000     305.174042   -4599.897645   -5510.473162       0.000000       0.000000       0.000000   25007.167866  -31551.031391    1033.390364 
 1300000     303.781885   -4562.082896   -5468.504507       0.000000       0.000000       0.000000   25037.314994  -31553.507838    1047.688337 
 1310000     305.954148   -4580.405136   -5493.308326       0.000000       0.000000       0.000000   24943.240291  -31552.970986    1116.422369 
 1320000     294.706819   -4680.840502   -5560.184014       0.000000       0.000000       0.000000   24949.695134  -31550.154975    1040.275827 
 1330000     307.444047   -4647.833601   -5565.182339       0.000000       0.000000       0.000000   24850.533492  -31555.051553    1139.335722 
 1340000     304.234335   -4553.844453   -5461.616082       0.000000       0.000000       0.000000   24952.583161  -31551.254469    1137.055226 
 1350000     305.162930   -4599.818368   -5510.360730       0.000000       0.000000       0.000000   24939.962380  -31555.946763    1105.623652 
 1360000     310.213655   -4604.536924   -5530.149592       0.000000       0.000000       0.000000   24915.964164  -31554.320936    1108.207181 
 1370000     315.870327   -4590.791648   -5533.282641       0.000000       0.000000       0.000000   24906.769385  -31554.603507    1114.551480 
 1380000     299.303432   -4571.196526   -5464.255370       0.000000       0.000000       0.000000   25071.809923  -31547.711709    1011.646416 
 1390000     304.700743   -4620.183913   -5529.347206       0.000000       0.000000       0.000000   24926.837830  -31554.232256    1098.047219 
 1400000     302.644104   -4624.436302   -5527.463014       0.000000       0.000000       0.000000   24907.083323  -31552.218169    1117.671832 
 1410000     296.981908   -4601.758890   -5487.890794       0.000000       0.000000       0.000000   24995.172595  -31554.871453    1071.808064 
 1420000     302.855332   -4631.978191   -5535.635164       0.000000       0.000000       0.000000   24944.676265  -31555.416332    1075.104903 
 1430000     304.165007   -4641.379919   -5548.944686       0.000000       0.000000       0.000000   24904.326246  -31554.726180    1101.455249 
 1440000     297.839448   -4660.069171   -5548.759793       0.000000       0.000000       0.000000   24880.151570  -31560.026724    1131.115361 
 1450000     301.294998   -4633.649691   -5532.650952       0.000000       0.000000       0.000000   24878.957985  -31552.541223    1140.932286 
 1460000     297.703651   -4616.097205   -5504.382637       0.000000       0.000000       0.000000   24943.524146  -31554.726349    1106.819566 
 1470000     295.065880   -4661.821553   -5542.236429       0.000000       0.000000       0.000000   24843.826638  -31554.188889    1168.125823 
 1480000     295.593803   -4700.931470   -5582.921557       0.000000       0.000000       0.000000   24889.646165  -31552.943620    1080.375898 
 1490000     297.605806   -4630.006114   -5517.999596       0.000000       0.000000       0.000000   24938.590228  -31553.138131    1096.548307 
 1500000     289.669960   -4643.219545   -5507.534124       0.000000       0.000000       0.000000   24972.645890  -31551.725830    1071.545815 
 1510000     287.213079   -4596.464820   -5453.448579       0.000000       0.000000       0.000000   25033.301388  -31553.204947    1066.454980 
 1520000     302.806913   -4579.865667   -5483.378166       0.000000       0.000000       0.000000   25011.639034  -31551.693512    1056.676313 
 1530000     293.206553   -4587.844583   -5462.711614       0.000000       0.000000       0.000000   25043.584380  -31552.705237    1046.409243 
 1540000     304.397343   -4640.166063   -5548.424072       0.000000       0.000000       0.000000   24901.657155  -31555.671142    1105.589916 
 1550000     312.923894   -4670.522916   -5604.222372       0.000000       0.000000       0.000000   24906.351749  -31556.495462    1045.921340 
 1560000     299.293007   -4630.007561   -5523.035301       0.000000       0.000000       0.000000   24921.827077  -31554.231144    1109.368766 
 1570000     290.934117   -4686.288627   -5554.375187       0.000000       0.000000       0.000000   24914.017281  -31555.074128    1086.681661 
 1580000     304.431499   -4589.534926   -5497.894851       0.000000       0.000000       0.000000   24942.684514  -31553.206462    1112.627097 
 1590000     299.193882   -4636.064784   -5528.796756       0.000000       0.000000       0.000000   24909.078375  -31553.508556    1115.633425 
 1600000     287.441752   -4688.451393   -5546.117464       0.000000       0.000000       0.000000   24860.723882  -31552.235123    1145.393777 
 1610000     298.933909   -4615.839382   -5507.795649       0.000000       0.000000       0.000000   24907.820651  -31552.605718    1136.989418 
 1620000     284.350061   -4691.177346   -5539.618459       0.000000       0.000000       0.000000   24915.238927  -31554.383957    1099.526571 
 1630000     300.337613   -4587.513941   -5483.658565       0.000000       0.000000       0.000000   24923.709299  -31549.593061    1142.225196 
 1640000     298.219023   -4698.284998   -5588.108193       0.000000       0.000000       0.000000   24807.268009  -31554.202226    1158.826024 
 1650000     306.787048   -4613.388023   -5528.776413       0.000000       0.000000       0.000000   24924.632054  -31553.934375    1100.525908 
 1660000     306.055516   -4670.460262   -5583.665915       0.000000       0.000000       0.000000   24900.007303  -31558.505196    1074.831978 
 1670000     303.243605   -4654.053828   -5558.869326       0.000000       0.000000       0.000000   24790.018933  -31550.298986    1201.410727 
 1680000     282.959990   -4690.572288   -5534.865720       0.000000       0.000000       0.000000   24929.659719  -31556.008874    1091.483434 
 1690000     297.518554   -4718.331096   -5606.064238       0.000000       0.000000       0.000000   24750.968406  -31554.393394    1197.360749 
 1700000     303.727884   -4643.093274   -5549.353758       0.000000       0.000000       0.000000   24949.490180  -31552.856465    1054.012528 
 1710000     305.681110   -4601.286591   -5513.375091       0.000000       0.000000       0.000000   24910.410295  -31549.994333    1126.208947 
 1720000     303.503640   -4582.801211   -5488.392598       0.000000       0.000000       0.000000   24964.973425  -31550.941686    1097.575662 
 1730000     298.958505   -4559.236432   -5451.266086       0.000000       0.000000       0.000000   25007.683575  -31551.554092    1092.604431 
 1740000     301.201701   -4611.363979   -5510.086861       0.000000       0.000000       0.000000   24950.575794  -31553.517680    1092.855025 
 1750000     301.599900   -4627.612234   -5527.523258       0.000000       0.000000       0.000000   24874.740966  -31551.391790    1149.127565 
 1760000     303.256805   -4605.504815   -5510.359700       0.000000       0.000000       0.000000   25016.521590  -31554.025643    1027.144354 
 1770000     289.955630   -4639.691145   -5504.858103       0.000000       0.000000       0.000000   24984.384449  -31553.709198    1064.466646 
 1780000     305.959669   -4574.912122   -5487.831786       0.000000       0.000000       0.000000   25011.298552  -31550.388625    1051.258287 
 1790000     304.651327   -4645.206637   -5554.222483       0.000000       0.000000       0.000000   24999.702067  -31550.448329     996.523780 
 1800000     301.752799   -4663.697752   -5564.064997       0.000000       0.000000       0.000000   24877.018683  -31550.781246    1109.697566 
 1810000     299.708196   -4635.702907   -5529.969483       0.000000       0.000000       0.000000   25041.903217  -31557.242967     985.370267 
 1820000     306.845316   -4554.217411   -5469.779661       0.000000       0.000000       0.000000   24974.986498  -31545.826307    1101.060147 
 1830000     304.037989   -4611.501520   -5518.687292       0.000000       0.000000       0.000000   24958.510999  -31551.547167    1074.348876 
 1840000     291.006964   -4692.992107   -5561.296025       0.000000       0.000000       0.000000   24908.020272  -31552.863844    1083.547547 
 1850000     310.129067   -4600.247189   -5525.607465       0.000000       0.000000       0.000000   24945.063241  -31551.389316    1080.718610 
 1860000     291.785957   -4645.886409   -5516.514682       0.000000       0.000000       0.000000   24927.498131  -31550.504435    1106.491622 
 1870000     304.015671   -4631.513857   -5538.633039       0.000000       0.000000       0.000000   24936.442339  -31554.207215    1079.131837 
 1880000     299.721558   -4612.760319   -5507.066764       0.000000       0.000000       0.000000   25001.067080  -31555.781585    1047.647741 
 1890000     312.909092   -4600.620281   -5534.275568       0.000000       0.000000       0.000000   24922.359820  -31551.943477    1095.308089 
 1900000     296.059379   -4651.708128   -5535.087398       0.000000       0.000000       0.000000   24935.825183  -31552.348711    1081.436130 
 1910000     298.440549   -4625.957924   -5516.442105       0.000000       0.000000       0.000000   24919.810713  -31552.837128    1116.584310 
 1920000     304.317409   -4600.985773   -5509.005275       0.000000       0.000000       0.000000   24837.261947  -31554.943930    1208.676708 
 1930000     287.579926   -4656.760385   -5514.838741       0.000000       0.000000       0.000000   25058.461085  -31553.361386     980.061561 
 1940000     292.946403   -4626.988845   -5501.079644       0.000000       0.000000       0.000000   25005.410221  -31553.225752    1046.735887 
 1950000     287.357346   -4691.512634   -5548.926856       0.000000       0.000000       0.000000   24936.696689  -31553.080465    1067.456921 
 1960000     301.432147   -4549.262785   -5448.673272       0.000000       0.000000       0.000000   25089.685194  -31550.049362    1011.690896 
 1970000     295.435566   -4712.642804   -5594.160747       0.000000       0.000000       0.000000   24861.389588  -31556.777769    1101.227434 
 1980000     285.921064   -4637.131970   -5490.260629       0.000000       0.000000       0.000000   24948.758919  -31547.342301    1108.322753 
 1990000     293.282034   -4650.417709   -5525.509960       0.000000       0.000000       0.000000   24857.647195  -31551.729815    1168.572659 
 2000000     292.089278   -4606.603011   -5478.136330       0.000000       0.000000       0.000000   24962.005429  -31549.505902    1109.364144 
 2010000     303.053994   -4575.072264   -5479.322002       0.000000       0.000000       0.000000   24969.534084  -31551.953044    1103.096957 
 2020000     303.689322   -4612.045206   -5518.190630       0.000000       0.000000       0.000000   24911.849801  -31552.604689    1122.564258 
 2030000     300.465624   -4661.826582   -5558.353166       0.000000       0.000000       0.000000   24855.681254  -31552.992761    1138.958341 
 2040000     288.872347   -4652.085702   -5514.020371       0.000000       0.000000       0.000000   24907.081182  -31550.038251    1128.936697 
 2050000     300.824566   -4611.599699   -5509.197290       0.000000       0.000000       0.000000   24985.341634  -31552.431043    1057.892118 
 2060000     299.222763   -4697.918179   -5590.736325       0.000000       0.000000       0.000000   24822.989417  -31551.010131    1137.284389 
 2070000     300.508651   -4610.906616   -5507.561583       0.000000       0.000000       0.000000   24938.605151  -31552.227794    1106.061060 
 2080000     296.436057   -4681.049729   -5565.552928       0.000000       0.000000       0.000000   24872.667965  -31554.007630    1115.786738 
 2090000     308.772441   -4689.850362   -5611.162749       0.000000       0.000000       0.000000   24769.199668  -31556.144747    1175.782330 
 2100000     302.075296   -4616.224571   -5517.554080       0.000000       0.000000       0.000000   24979.373058  -31555.803189    1058.876051 
 2110000     300.905025   -4667.635197   -5565.472860       0.000000       0.000000       0.000000   24902.688011  -31552.104654    1083.943783 
 2120000     302.201574   -4620.549305   -5522.255601       0.000000       0.000000       0.000000   24910.965516  -31555.857791    1122.636674 
 2130000     293.884039   -4560.877960   -5437.766470       0.000000       0.000000       0.000000   25057.404490  -31547.899250    1052.728290 
 2140000     300.349509   -4634.030248   -5530.210369       0.000000       0.000000       0.000000   24958.351522  -31551.731816    1063.169924 
 2150000     303.544564   -4630.661871   -5536.375367       0.000000       0.000000       0.000000   24941.001584  -31554.208201    1076.831249 
 2160000     305.266581   -4640.183352   -5551.034986       0.000000       0.000000       0.000000   24911.422750  -31554.608826    1092.151090 
 2170000     287.570168   -4689.402868   -5547.452106       0.000000       0.000000       0.000000   24931.435260  -31550.552783    1071.665418 
 2180000     298.264376   -4668.757629   -5558.716148       0.000000       0.000000       0.000000   24928.476721  -31553.219968    1066.027098 
 2190000     304.923632   -4641.854993   -5551.683340       0.000000       0.000000       0.000000   24947.268465  -31553.221484    1054.269678 
 2200000     309.359405   -4638.186729   -5561.250493       0.000000       0.000000       0.000000   24872.654467  -31550.166121    1116.261161 
 2210000     299.007457   -4674.836520   -5567.012236       0.000000       0.000000       0.000000   24882.713905  -31550.315093    1100.588952 
 2220000     291.470722   -4655.067233   -5524.754909       0.000000       0.000000       0.000000   24876.058613  -31554.555941    1153.742420 
 2230000     293.179338   -4635.586347   -5510.372176       0.000000       0.000000       0.000000   24987.961005  -31548.611381    1050.278200 
 2240000     301.780406   -4625.570342   -5526.019959       0.000000       0.000000       0.000000   24940.476073  -31551.818860    1085.322828 
 2250000     307.143927   -4563.523007   -5479.976250       0.000000       0.000000       0.000000   24914.514863  -31550.436860    1155.945747 
 2260000     297.915100   -4593.877717   -5482.794070       0.000000       0.000000       0.000000   24969.316952  -31553.259381    1101.148359 
 2270000     306.941361   -4647.070667   -5562.919494       0.000000       0.000000       0.000000   24944.434135  -31558.175782    1050.822154 
 2280000     305.558856   -4612.819492   -5524.543214       0.000000       0.000000       0.000000   24996.959997  -31556.272586    1034.769376 
 2290000     313.088758   -4552.684769   -5486.876144       0.000000       0.000000       0.000000   25018.791597  -31553.808647    1048.140906 
 2300000     294.974157   -4590.455212   -5470.596406       0.000000       0.000000       0.000000   24959.056836  -31555.582967    1125.929725 
 2310000     305.615361   -4625.951516   -5537.843836       0.000000       0.000000       0.000000   24908.920184  -31550.952583    1104.188564 
 2320000     296.225034   -4672.108561   -5555.982110       0.000000       0.000000       0.000000   24887.098184  -31556.990140    1113.909846 
 2330000     291.530577   -4705.905060   -5575.771332       0.000000       0.000000       0.000000   24890.446617  -31556.770305    1090.552356 
 2340000     302.726549   -4656.399352   -5559.672062       0.000000       0.000000       0.000000   24921.080687  -31553.325126    1072.572377 
 2350000     312.133574   -4586.570452   -5517.911755       0.000000       0.000000       0.000000   24964.334657  -31554.211985    1071.965573 
 2360000     308.260016   -4607.242701   -5527.026120       0.000000       0.000000       0.000000   24954.752293  -31555.911242    1074.132828 
 2370000     302.242619   -4590.578208   -5492.406972       0.000000       0.000000       0.000000   25044.499363  -31554.559037    1017.652702 
 2380000     298.390169   -4664.900577   -5555.234436       0.000000       0.000000       0.000000   24905.138630  -31554.685848    1094.312782 
 2390000     310.268486   -4675.984143   -5601.760415       0.000000       0.000000       0.000000   24839.012288  -31550.837225    1110.064522 
 2400000     302.661106   -4602.683584   -5505.761026       0.000000       0.000000       0.000000   24916.824625  -31551.441631    1128.855981 
 2410000     289.773215   -4640.434100   -5505.056772       0.000000       0.000000       0.000000   25028.315745  -31555.369172    1021.996655 
 2420000     302.225520   -4602.243272   -5504.021015       0.000000       0.000000       0.000000   24992.945330  -31552.083676    1055.117331 
 2430000     296.206220   -4646.878323   -5530.695735       0.000000       0.000000       0.000000   24901.288618  -31554.026624    1122.042271 
 2440000     294.213661   -4682.954859   -5560.826892       0.000000       0.000000       0.000000   24910.089999  -31553.897326    1082.980435 
 2450000     310.414668   -4583.503424   -5509.715872       0.000000       0.000000       0.000000   24971.492946  -31551.490752    1070.281935 
 2460000     298.964338   -4718.058231   -5610.105290       0.000000       0.000000       0.000000   24855.553806  -31558.240771    1092.581675 
 2470000     325.111138   -4511.215637   -5481.279280       0.000000       0.000000       0.000000   24943.525007  -31552.729516    1127.925229 
 2480000     297.058947   -4595.491761   -5481.853531       0.000000       0.000000       0.000000   24981.920319  -31552.131216    1088.357366 
 2490000     302.844935   -4569.773569   -5473.399519       0.000000       0.000000       0.000000   25017.852021  -31550.238176    1058.986636 
 2500000     286.714985   -4695.413344   -5550.910896       0.000000       0.000000       0.000000   24865.065573  -31555.519900    1139.543431 
 2510000     308.258533   -4608.317068   -5528.096062       0.000000       0.000000       0.000000   24921.664316  -31553.306775    1103.546397 
 2520000     298.040747   -4624.348002   -5513.639260       0.000000       0.000000       0.000000   25005.195708  -31555.145736    1036.310769 
 2530000     291.270535   -4655.111558   -5524.201919       0.000000       0.000000       0.000000   24928.578626  -31551.836633    1099.056088 
 2540000     311.734658   -4564.283380   -5494.434404       0.000000       0.000000       0.000000   24924.939217  -31554.379935    1135.006315 
 2550000     303.410763   -4730.583014   -5635.897277       0.000000       0.000000       0.000000   24816.802755  -31554.143390    1101.443358 
 2560000     295.403450   -4657.098328   -5538.520443       0.000000       0.000000       0.000000   24865.658170  -31556.599474    1152.420861 
 2570000     294.768684   -4708.090403   -5587.618509       0.000000       0.000000       0.000000   24897.974175  -31558.759017    1073.166334 
 2580000     288.188957   -4663.008804   -5522.904379       0.000000       0.000000       0.000000   24959.110199  -31556.289173    1074.274595 
 2590000     307.840506   -4596.184383   -5514.716070       0.000000       0.000000       0.000000   24898.855220  -31554.989248    1141.417958 
 2600000     300.118061   -4581.776008   -5477.265536       0.000000       0.000000       0.000000   25013.506162  -31555.046656    1064.274958 
 2610000     307.335485   -4624.249120   -5541.273932       0.000000       0.000000       0.000000   24836.822774  -31551.011749    1172.915044 
 2620000     293.936007   -4610.883034   -5487.926606       0.000000       0.000000       0.000000   24932.695797  -31552.272697    1131.650294 
 2630000     304.379185   -4646.243017   -5554.446848       0.000000       0.000000       0.000000   24890.557820  -31552.093602    1107.088934 
 2640000     289.618430   -4633.781135   -5497.941960       0.000000       0.000000       0.000000   24994.210667  -31552.471736    1060.319109 
 2650000     298.879207   -4631.849753   -5523.642799       0.000000       0.000000       0.000000   24901.136183  -31553.505527    1128.726545 
 2660000     284.304333   -4671.438059   -5519.742730       0.000000       0.000000       0.000000   24907.601204  -31548.788744    1121.444810 
 2670000     299.696147   -4623.736207   -5517.966831       0.000000       0.000000       0.000000   24948.068975  -31553.062617    1087.026811 
 2680000     302.867714   -4647.564735   -5551.258653       0.000000       0.000000       0.000000   24941.889537  -31553.069525    1059.921335 
 2690000     300.092205   -4682.628985   -5578.041363       0.000000       0.000000       0.000000   24850.366902  -31553.073649    1124.665384 
 2700000     308.613411   -4543.185271   -5464.023145       0.000000       0.000000       0.000000   25027.021989  -31547.936139    1056.891005 
 2710000     290.679206   -4627.345009   -5494.670966       0.000000       0.000000       0.000000   25001.009483  -31555.841582    1060.161133 
 2720000     302.479793   -4589.380493   -5491.916936       0.000000       0.000000       0.000000   25039.081512  -31554.623963    1023.625515 
 2730000     302.933816   -4604.224802   -5508.115953       0.000000       0.000000       0.000000   24992.139139  -31554.686032    1054.430940 
 2740000     313.059715   -4575.418417   -5509.523134       0.000000       0.000000       0.000000   24946.416829  -31553.819369    1097.879406 
 2750000     291.548013   -4654.432533   -5524.350830       0.000000       0.000000       0.000000   24923.254387  -31554.795948    1107.190731 
 2760000     306.450084   -4679.606566   -5593.989526       0.000000       0.000000       0.000000   24827.569580  -31553.442061    1131.882955 
 2770000     302.688908   -4595.911960   -5499.072356       0.000000       0.000000       0.000000   25032.441853  -31552.568886    1021.054678 
 2780000     294.226791   -4640.998345   -5518.909556       0.000000       0.000000       0.000000   24929.323066  -31552.712066    1104.479444 
 2790000     296.140574   -4648.205972   -5531.827509       0.000000       0.000000       0.000000   24867.001749  -31556.638933    1157.809674 
 2800000     297.936120   -4645.312359   -5534.291430       0.000000       0.000000       0.000000   24950.780000  -31557.215765    1072.144335 
 2810000     302.947898   -4607.580010   -5511.513178       0.000000       0.000000       0.000000   24984.557243  -31552.651571    1056.581150 
 2820000     295.944097   -4662.613367   -5545.648658       0.000000       0.000000       0.000000   24899.043862  -31552.183710    1107.491191 
 2830000     303.048024   -4562.040307   -5466.272231       0.000000       0.000000       0.000000   25069.431625  -31552.366888    1016.663032 
 2840000     291.658070   -4640.787573   -5511.034256       0.000000       0.000000       0.000000   24918.667266  -31552.726731    1123.025210 
 2850000     314.135100   -4618.369343   -5555.682783       0.000000       0.000000       0.000000   24956.179595  -31556.219442    1044.357063 
 2860000     305.877221   -4572.633049   -5485.306704       0.000000       0.000000       0.000000   24998.204987  -31552.706939    1069.195248 
 2870000     320.264538   -4646.328756   -5601.931157       0.000000       0.000000       0.000000   24807.271082  -31553.888295    1144.686056 
 2880000     307.612995   -4641.282714   -5559.135557       0.000000       0.000000       0.000000   24846.219242  -31552.472884    1147.118085 
 2890000     299.912978   -4630.649699   -5525.527301       0.000000       0.000000       0.000000   24930.894210  -31553.173024    1096.751514 
 2900000     316.792670   -4572.978064   -5518.221137       0.000000       0.000000       0.000000   24930.606581  -31554.546461    1105.718744 
 2910000     297.954883   -4659.534218   -5548.569276       0.000000       0.000000       0.000000   24896.164457  -31554.452524    1109.718791 
 2920000     292.684627   -4665.900151   -5539.209866       0.000000       0.000000       0.000000   24912.250209  -31550.609555    1099.149480 
 2930000     307.590868   -4640.067355   -5557.854176       0.000000       0.000000       0.000000   24862.391821  -31557.222321    1136.976323 
 2940000     309.722263   -4596.756304   -5520.902761       0.000000       0.000000       0.000000   24932.898292  -31550.931301    1097.130249 
 2950000     293.577810   -4622.974222   -5498.949008       0.000000       0.000000       0.000000   24990.647671  -31548.260514    1058.663835 
 2960000     302.112081   -4575.956931   -5477.396196       0.000000       0.000000       0.000000   24942.600064  -31552.567252    1132.570991 
 2970000     302.367853   -4676.140653   -5578.343089       0.000000       0.000000       0.000000   24945.244961  -31551.438910    1027.850859 
 2980000     305.066369   -4598.004850   -5508.259095       0.000000       0.000000       0.000000   24889.228996  -31552.569913    1155.081823 
 2990000     293.324891   -4661.867969   -5537.088098       0.000000       0.000000       0.000000   24908.478320  -31553.093263    1107.526844 
 3000000     298.063704   -4646.561117   -5535.920872       0.000000       0.000000       0.000000   24901.654915  -31553.294885    1115.719098 
 3010000     322.742957   -4592.787150   -5555.784636       0.000000       0.000000       0.000000   24929.626672  -31552.323172    1066.911864 
 3020000     307.275174   -4629.945734   -5546.790589       0.000000       0.000000       0.000000   24822.641255  -31553.445824    1184.013980 
 3030000     311.152678   -4575.300406   -5503.714922       0.000000       0.000000       0.000000   24934.323033  -31551.617045    1113.579090 
 3040000     294.469842   -4586.295952   -5464.932376       0.000000       0.000000       0.000000   24992.054326  -31553.875144    1096.888441 
 3050000     299.782197   -4625.481833   -5519.969212       0.000000       0.000000       0.000000   24978.765843  -31556.712069    1057.977015 
 3060000     299.803598   -4688.173150   -5582.724387       0.000000       0.000000       0.000000   24788.421089  -31553.108400    1181.962923 
 3070000     300.650322   -4606.032015   -5503.109699       0.000000       0.000000       0.000000   24928.366433  -31555.961604    1124.485472 
 3080000     292.619758   -4689.249889   -5562.366047       0.000000       0.000000       0.000000   24847.855767  -31558.070363    1147.848549 
 3090000     294.067470   -4653.622972   -5531.058801       0.000000       0.000000       0.000000   24962.089854  -31554.963099    1061.814444 
 3100000     296.063842   -4648.621351   -5532.013938       0.000000       0.000000       0.000000   24907.851550  -31555.237878    1115.372389 
 3110000     297.307531   -4618.247348   -5505.350841       0.000000       0.000000       0.000000   24999.549993  -31553.336068    1048.435234 
 3120000     299.940544   -4570.039713   -5464.999567       0.000000       0.000000       0.000000   25012.051560  -31544.970349    1067.919223 
 3130000     300.892900   -4623.305061   -5521.106545       0.000000       0.000000       0.000000   24919.362606  -31553.196619    1112.727468 
 3140000     299.452380   -4654.808996   -5548.312271       0.000000       0.000000       0.000000   24911.633661  -31551.502750    1091.556818 
 3150000     301.474631   -4610.665992   -5510.203240       0.000000       0.000000       0.000000   25026.252487  -31552.457992    1016.002265 
 3160000     304.581882   -4632.691609   -5541.500244       0.000000       0.000000       0.000000   24882.602612  -31545.840559    1121.737703 
 3170000     296.656669   -4628.329261   -5513.490718       0.000000       0.000000       0.000000   24965.016562  -31554.113422    1075.606142 
 3180000     289.086547   -4678.733487   -5541.307285       0.000000       0.000000       0.000000   24958.766182  -31555.926463    1055.852996 
 3190000     313.755902   -4680.423694   -5616.605685       0.000000       0.000000       0.000000   24791.811911  -31553.216178    1144.798582 
 3200000     295.952858   -4648.088042   -5531.149476       0.000000       0.000000       0.000000   25002.838337  -31554.099910    1020.112098 
 3210000     294.549956   -4592.676600   -5471.552066       0.000000       0.000000       0.000000   24992.672100  -31551.637335    1087.413169 
 3220000     314.055432   -4613.264662   -5550.340391       0.000000       0.000000       0.000000   24872.603391  -31553.459695    1130.515913 
 3230000     309.253875   -4550.868364   -5473.617249       0.000000       0.000000       0.000000   24975.062012  -31547.959587    1099.280326 
 3240000     297.862758   -4633.878578   -5522.638753       0.000000       0.000000       0.000000   24948.960717  -31550.319787    1078.720317 
 3250000     308.664157   -4598.842639   -5519.831929       0.000000       0.000000       0.000000   24962.618284  -31553.589993    1071.139780 
 3260000     294.829555   -4682.182336   -5561.892068       0.000000       0.000000       0.000000   24869.991795  -31552.658769    1120.774906 
 3270000     298.876061   -4666.250421   -5558.034082       0.000000       0.000000       0.000000   24910.417912  -31551.745625    1083.293631 
 3280000     298.021407   -4585.912800   -5475.146350       0.000000       0.000000       0.000000   24980.493427  -31554.740852    1099.101075 
 3290000     310.952554   -4579.026314   -5506.843704       0.000000       0.000000       0.000000   24922.812962  -31551.497304    1121.840639 
 3300000     305.420453   -4612.193179   -5523.503934       0.000000       0.000000       0.000000   24971.280757  -31552.066896    1057.282205 
 3310000     310.837768   -4566.064256   -5493.539147       0.000000       0.000000       0.000000   25008.695907  -31551.768825    1049.533771 
 3320000     303.265036   -4636.931223   -5541.810665       0.000000       0.000000       0.000000   24936.693856  -31553.118425    1074.613904 
 3330000     309.633417   -4577.945097   -5501.826455       0.000000       0.000000       0.000000   24944.579915  -31553.252785    1106.846415 
 3340000     305.548268   -4596.880142   -5508.572271       0.000000       0.000000       0.000000   24923.602736  -31551.549235    1119.374228 
 3350000     298.760571   -4624.612626   -5516.051688       0.000000       0.000000       0.000000   24948.602727  -31552.211869    1087.557454 
 3360000     291.634286   -4678.186907   -5548.362623       0.000000       0.000000       0.000000   24970.388231  -31552.811045    1034.060190 
 3370000     296.111536   -4643.136657   -5526.671552       0.000000       0.000000       0.000000   24912.697945  -31550.772931    1111.403435 
 3380000     298.809668   -4622.258632   -5513.844187       0.000000       0.000000       0.000000   24921.461169  -31552.131870    1116.826514 
 3390000     299.087151   -4660.020536   -5552.434043       0.000000       0.000000       0.000000   24969.444984  -31555.963377    1034.084350 
 3400000     301.991573   -4556.583167   -5457.662862       0.000000       0.000000       0.000000   25049.479491  -31551.673542    1044.531188 
 3410000     317.138104   -4514.388995   -5460.662772       0.000000       0.000000       0.000000   25031.780497  -31554.674901    1062.231632 
 3420000     310.421348   -4575.641523   -5501.873904       0.000000       0.000000       0.000000   25007.250133  -31549.188812    1040.064776 
 3430000     289.418006   -4606.031327   -5469.594128       0.000000       0.000000       0.000000   25046.931596  -31553.124530    1036.598807 
 3440000     294.502195   -4647.505934   -5526.238891       0.000000       0.000000       0.000000   24954.651276  -31556.608368    1075.718200 
 3450000     304.029063   -4539.057281   -5446.216421       0.000000       0.000000       0.000000   25088.115134  -31552.906056    1018.574501 
 3460000     300.185199   -4626.308673   -5521.998528       0.000000       0.000000       0.000000   24956.640244  -31551.681325    1073.042554 
 3470000     309.371577   -4599.184440   -5522.284523       0.000000       0.000000       0.000000   24906.643581  -31550.822652    1121.894548 
 3480000     308.349443   -4627.085663   -5547.135912       0.000000       0.000000       0.000000   24828.720523  -31553.199437    1177.343001 
 3490000     303.706903   -4576.033333   -5482.231214       0.000000       0.000000       0.000000   24997.324951  -31554.013256    1074.457092 
 3500000     300.083372   -4660.300984   -5555.687006       0.000000       0.000000       0.000000   24931.767738  -31552.067783    1064.613039 
 3510000     291.803654   -4661.916331   -5532.597407       0.000000       0.000000       0.000000   24891.890795  -31551.960082    1127.471881 
 3520000     293.581538   -4685.077529   -5561.063437       0.000000       0.000000       0.000000   24820.253971  -31555.696100    1174.378691 
 3530000     286.443723   -4670.720847   -5525.409010       0.000000       0.000000       0.000000   24988.164875  -31552.141288    1038.567404 
 3540000     300.956247   -4561.894490   -5459.884989       0.000000       0.000000       0.000000   24972.743083  -31551.435109    1118.807037 
 3550000     288.312688   -4693.486108   -5553.750871       0.000000       0.000000       0.000000   24950.012296  -31554.060796    1050.297628 
 3560000     298.219139   -4689.156522   -5578.980062       0.000000       0.000000       0.000000   24776.103594  -31551.300276    1196.216620 
 3570000     287.012702   -4696.448751   -5552.834627       0.000000       0.000000       0.000000   24881.494183  -31553.722655    1119.393846 
 3580000     312.509977   -4642.319943   -5574.784356       0.000000       0.000000       0.000000   24890.997628  -31550.538448    1084.756464 
 3590000     300.085497   -4630.211552   -5525.603916       0.000000       0.000000       0.000000   24832.605811  -31554.870457    1196.660729 
 3600000     303.489542   -4614.502343   -5520.051663       0.000000       0.000000       0.000000   24915.384106  -31554.356604    1118.920835 
 3610000     306.734779   -4650.798210   -5566.030639       0.000000       0.000000       0.000000   24882.108960  -31556.086087    1107.946488 
 3620000     300.558060   -4546.335594   -5443.137986       0.000000       0.000000       0.000000   25010.200527  -31551.692455    1098.353942 
 3630000     295.657607   -4647.867042   -5530.047508       0.000000       0.000000       0.000000   24863.040101  -31555.893778    1162.806169 
 3640000     291.917826   -4656.844921   -5527.866661       0.000000       0.000000       0.000000   24952.982852  -31557.173248    1076.323736 
 3650000     287.801991   -4684.509706   -5543.250656       0.000000       0.000000       0.000000   24892.635671  -31552.702012    1116.815686 
 3660000     305.681616   -4675.722798   -5587.812810       0.000000       0.000000       0.000000   24852.318920  -31554.501892    1114.370161 
 3670000     296.417943   -4622.774387   -5507.223537       0.000000       0.000000       0.000000   24990.202362  -31550.743201    1053.317302 
 3680000     296.562939   -4629.217272   -5514.099060       0.000000       0.000000       0.000000   24952.048042  -31555.215096    1089.067994 
 3690000     296.083517   -4580.022719   -5463.474010       0.000000       0.000000       0.000000   25005.431753  -31551.568587    1082.662824 
 3700000     299.658971   -4595.780191   -5489.899892       0.000000       0.000000       0.000000   24990.492898  -31553.287148    1072.894359 
 3710000     298.732118   -4631.172139   -5522.526303       0.000000       0.000000       0.000000   24974.747938  -31556.161136    1058.886895 
 3720000     294.648408   -4652.823137   -5531.992364       0.000000       0.000000       0.000000   24870.714995  -31551.678281    1148.970922 
 3730000     294.476060   -4657.709002   -5536.363978       0.000000       0.000000       0.000000   24882.526592  -31550.144696    1131.254126 
 3740000     281.609022   -4708.626240   -5548.888667       0.000000       0.000000       0.000000   24877.063620  -31554.141030    1128.188743 
 3750000     283.779657   -4667.124769   -5513.863916       0.000000       0.000000       0.000000   24940.416058  -31553.211909    1098.931935 
 3760000     311.556013   -4599.620878   -5529.238862       0.000000       0.000000       0.000000   24957.279657  -31553.847343    1067.328824 
 3770000     296.102705   -4670.863973   -5554.372519       0.000000       0.000000       0.000000   24926.637527  -31551.533671    1070.523625 
 3780000     301.109574   -4673.181562   -5571.629558       0.000000       0.000000       0.000000   24927.345222  -31553.485953    1054.511173 
 3790000     295.955237   -4682.624506   -5565.693037       0.000000       0.000000       0.000000   24840.838248  -31555.954191    1149.422906 
 3800000     298.277922   -4664.728016   -5554.726953       0.000000       0.000000       0.000000   24839.155976  -31555.353929    1161.470999 
 3810000     280.947546   -4693.444383   -5531.733102       0.000000       0.000000       0.000000   24931.268591  -31555.413879    1092.412186 
 3820000     290.266268   -4631.832279   -5497.926117       0.000000       0.000000       0.000000   24961.890361  -31552.705324    1092.888846 
 3830000     317.267404   -4585.203372   -5531.862954       0.000000       0.000000       0.000000   24928.501426  -31552.044715    1091.680335 
 3840000     296.503682   -4660.591307   -5545.296284       0.000000       0.000000       0.000000   24854.498938  -31552.874669    1153.079447 
 3850000     295.260472   -4630.794843   -5511.790341       0.000000       0.000000       0.000000   24932.000334  -31555.234615    1111.443941 
 3860000     284.710137   -4615.199116   -5464.714620       0.000000       0.000000       0.000000   25014.379259  -31548.788805    1069.694926 
 3870000     300.056958   -4617.366266   -5512.673475       0.000000       0.000000       0.000000   24894.102741  -31550.065686    1143.289469 
 3880000     305.900630   -4655.300498   -5568.044003       0.000000       0.000000       0.000000   24840.703202  -31552.595446    1143.848242 
 3890000     291.362750   -4623.572685   -5492.938194       0.000000       0.000000       0.000000   24986.362156  -31555.366382    1076.066032 
 3900000     301.647541   -4615.701642   -5515.754817       0.000000       0.000000       0.000000   24921.232434  -31552.858298    1115.871046 
 3910000     308.492273   -4657.215649   -5577.692073       0.000000       0.000000       0.000000   24893.464809  -31553.463746    1082.306864 
 3920000     290.071351   -4636.085716   -5501.597962       0.000000       0.000000       0.000000   25007.737818  -31552.456992    1043.121211 
 3930000     304.182514   -4610.166872   -5517.783879       0.000000       0.000000       0.000000   24980.337058  -31555.096269    1056.975332 
 3940000     303.559543   -4671.992707   -5577.750898       0.000000       0.000000       0.000000   24766.705861  -31554.140310    1209.683552 
 3950000     300.961181   -4566.867315   -5464.872536       0.000000       0.000000       0.000000   25105.612096  -31550.894373     980.409741 
 3960000     301.386254   -4586.675660   -5485.949210       0.000000       0.000000       0.000000   24972.100305  -31551.001132    1092.951616 
 3970000     299.024116   -4589.888838   -5482.114263       0.000000       0.000000       0.000000   25049.303866  -31553.987782    1022.569654 
 3980000     305.887574   -4661.391963   -5574.096511       0.000000       0.000000       0.000000   24871.041595  -31551.769673    1106.631567 
 3990000     310.865296   -4623.320820   -5550.877849       0.000000       0.000000       0.000000   24909.104595  -31553.869528    1093.887084 
 4000000     302.406527   -4624.796277   -5527.114108       0.000000       0.000000       0.000000   24970.636812  -31553.631590    1055.880671 
 4010000     292.507861   -4643.852175   -5516.634457       0.000000       0.000000       0.000000   24900.587464  -31554.996348    1137.774427 
 4020000     306.499741   -4547.265293   -5461.796420       0.000000       0.000000       0.000000   25028.912584  -31554.631058    1063.922053 
 4030000     295.305016   -4618.282471   -5499.410878       0.000000       0.000000       0.000000   24965.951707  -31552.395424    1087.032839 
 4040000     294.154554   -4652.851595   -5530.547265       0.000000       0.000000       0.000000   24936.607227  -31552.239233    1085.084741 
 4050000     301.643104   -4631.466552   -5531.506490       0.000000       0.000000       0.000000   24819.960275  -31552.308370    1200.841604 
 4060000     306.419833   -4580.177630   -5494.470326       0.000000       0.000000       0.000000   25003.164661  -31554.475998    1056.841011 
 4070000     303.971813   -4646.384996   -5553.373312       0.000000       0.000000       0.000000   24960.621617  -31554.674012    1040.679083 
 4080000     309.282784   -4562.127212   -5484.962355       0.000000       0.000000       0.000000   25032.050277  -31554.794850    1037.782218 
 4090000     293.224144   -4656.240244   -5531.159764       0.000000       0.000000       0.000000   24913.357148  -31556.407104    1111.890192 
 4100000     295.673220   -4640.410366   -5522.637418       0.000000       0.000000       0.000000   24926.290642  -31554.837415    1105.909354 
 4110000     314.736126   -4612.330554   -5551.437329       0.000000       0.000000       0.000000   24889.111273  -31556.140822    1115.592220 
 4120000     287.856570   -4684.444675   -5543.348477       0.000000       0.000000       0.000000   24931.131548  -31551.085457    1076.605433 
 4130000     304.760180   -4657.020498   -5566.361137       0.000000       0.000000       0.000000   24887.670465  -31553.931242    1099.899640 
 4140000     304.525105   -4718.661907   -5627.301131       0.000000       0.000000       0.000000   24734.590182  -31552.373518    1190.482205 
 4150000     291.334705   -4633.559022   -5502.840851       0.000000       0.000000       0.000000   24955.861575  -31552.279693    1093.577267 
 4160000     301.438062   -4607.613832   -5507.041967       0.000000       0.000000       0.000000   24936.282889  -31554.430831    1111.105975 
 4170000     298.826265   -4615.077778   -5506.712855       0.000000       0.000000       0.000000   24904.332998  -31556.668787    1145.622934 
 4180000     294.802049   -4622.929077   -5502.556736       0.000000       0.000000       0.000000   24955.131103  -31550.226726    1092.538886 
 4190000     310.628475   -4575.464100   -5502.314505       0.000000       0.000000       0.000000   24947.542363  -31553.303395    1103.446527 
 4200000     303.095121   -4559.653257   -5464.025708       0.000000       0.000000       0.000000   25024.925003  -31554.185138    1065.234427 
 4210000     300.198548   -4645.099623   -5540.829307       0.000000       0.000000       0.000000   24964.063287  -31553.366954    1048.474360 
 4220000     308.173752   -4517.208219   -5436.734243       0.000000       0.000000       0.000000   25099.572805  -31553.930129    1017.623081 
 4230000     300.418349   -4571.019026   -5467.404549       0.000000       0.000000       0.000000   24991.407716  -31549.807383    1090.995118 
 4240000     305.358666   -4602.877304   -5514.003699       0.000000       0.000000       0.000000   24958.884957  -31555.061824    1082.173167 
 4250000     290.744630   -4705.476554   -5572.997723       0.000000       0.000000       0.000000   24872.601887  -31553.384150    1107.784540 
 4260000     299.621626   -4626.875319   -5520.883589       0.000000       0.000000       0.000000   24980.337900  -31547.884675    1046.663185 
 4270000     308.983582   -4587.642679   -5509.585069       0.000000       0.000000       0.000000   24964.231351  -31551.941422    1078.125002 
 4280000     298.926555   -4610.360845   -5502.295167       0.000000       0.000000       0.000000   24936.154580  -31554.782531    1116.332784 
 4290000     296.160553   -4548.489031   -5432.170183       0.000000       0.000000       0.000000   25155.632872  -31552.980234     965.177179 
 4300000     294.222374   -4690.546224   -5568.444255       0.000000       0.000000       0.000000   24864.973933  -31550.690449    1117.272262 
 4310000     289.560855   -4666.392609   -5530.381643       0.000000       0.000000       0.000000   24896.466156  -31552.998696    1126.150897 
 4320000     296.114372   -4587.800157   -5471.343515       0.000000       0.000000       0.000000   24958.636443  -31554.040693    1124.060735 
 4330000     296.349578   -4674.844831   -5559.089994       0.000000       0.000000       0.000000   24906.027795  -31552.335396    1087.217607 
 4340000     296.354896   -4616.715380   -5500.976411       0.000000       0.000000       0.000000   24915.279684  -31550.790195    1134.534100 
 4350000     312.091981   -4606.063367   -5537.280566       0.000000       0.000000       0.000000   24890.667304  -31553.724922    1125.777052 
 4360000     304.020000   -4566.270002   -5473.402100       0.000000       0.000000       0.000000   25006.154125  -31552.655202    1073.098977 
 4370000     294.829092   -4624.189872   -5503.898221       0.000000       0.000000       0.000000   24899.438820  -31550.008203    1146.671162 
 4380000     296.687697   -4607.393278   -5492.647317       0.000000       0.000000       0.000000   24981.283946  -31552.111035    1078.179772 
 4390000     301.849352   -4566.675011   -5467.330350       0.000000       0.000000       0.000000   24992.903564  -31550.115083    1089.881170 
 4400000     303.952152   -4639.003657   -5545.933310       0.000000       0.000000       0.000000   24972.827970  -31551.823450    1033.062169 
 4410000     299.474719   -4610.059013   -5503.628944       0.000000       0.000000       0.000000   25036.791869  -31550.186419    1009.765607 
 4420000     297.532360   -4659.676524   -5547.450860       0.000000       0.000000       0.000000   24916.331608  -31555.349174    1091.566706 
 4430000     292.500631   -4602.769193   -5475.529901       0.000000       0.000000       0.000000   25001.928331  -31548.656298    1071.198065 
 4440000     308.273872   -4582.696100   -5502.520862       0.000000       0.000000       0.000000   24978.574134  -31554.104739    1073.009743 
 4450000     295.355563   -4624.376130   -5505.655359       0.000000       0.000000       0.000000   24929.380987  -31550.351274    1115.314928 
 4460000     293.008160   -4653.775678   -5528.050749       0.000000       0.000000       0.000000   24978.659456  -31553.572839    1046.862634 
 4470000     305.670348   -4601.944107   -5514.000497       0.000000       0.000000       0.000000   24906.213139  -31548.516055    1128.302420 
 4480000     309.523400   -4586.844712   -5510.397803       0.000000       0.000000       0.000000   25046.967569  -31554.537993     997.172621 
 4490000     307.740381   -4608.807065   -5527.040002       0.000000       0.000000       0.000000   24962.486262  -31553.455530    1063.929267 
 4500000     306.264894   -4585.871856   -5499.702246       0.000000       0.000000       0.000000   25010.239611  -31557.851458    1047.909601 
 4510000     301.720059   -4640.388099   -5540.657653       0.000000       0.000000       0.000000   24946.340334  -31554.302077    1067.304090 
 4520000     289.850057   -4586.421291   -5451.273241       0.000000       0.000000       0.000000   24998.776467  -31551.695798    1101.646090 
 4530000     291.613603   -4677.548437   -5547.662441       0.000000       0.000000       0.000000   24881.323334  -31553.836593    1124.850817 
 4540000     284.019257   -4690.899035   -5538.353099       0.000000       0.000000       0.000000   24898.826032  -31556.787012    1119.607881 
 4550000     297.694255   -4602.881185   -5491.138581       0.000000       0.000000       0.000000   24943.520887  -31553.335418    1118.675949 
 4560000     295.739721   -4690.500191   -5572.925668       0.000000       0.000000       0.000000   24952.520881  -31552.703316    1027.256767 
 4570000     316.902893   -4531.144305   -5476.716261       0.000000       0.000000       0.000000   25022.431613  -31549.044009    1049.896135 
 4580000     310.565128   -4631.459589   -5558.120980       0.000000       0.000000       0.000000   24844.030606  -31553.661447    1151.509861 
 4590000     305.380003   -4638.935183   -5550.125244       0.000000       0.000000       0.000000   24915.180122  -31556.068341    1090.762975 
 4600000     298.834237   -4619.601216   -5511.260083       0.000000       0.000000       0.000000   24991.173881  -31548.462708    1046.028744 
 4610000     304.630875   -4590.773454   -5499.728275       0.000000       0.000000       0.000000   24889.410530  -31557.202330    1168.063525 
 4620000     300.011948   -4627.985879   -5523.158789       0.000000       0.000000       0.000000   25020.642382  -31553.223173    1009.422003 
 4630000     292.248860   -4717.174600   -5589.184079       0.000000       0.000000       0.000000   24888.169233  -31554.015646    1076.662334 
 4640000     299.699648   -4604.344628   -5498.585699       0.000000       0.000000       0.000000   24982.714977  -31554.799580    1073.498904 
 4650000     311.238315   -4605.495305   -5534.165345       0.000000       0.000000       0.000000   24934.654803  -31550.655064    1081.834915 
 4660000     312.452437   -4567.927708   -5500.220434       0.000000       0.000000       0.000000   25000.022224  -31549.534468    1049.291810 
 4670000     312.474157   -4579.433110   -5511.790645       0.000000       0.000000       0.000000   24968.902239  -31550.962550    1070.269666 
 4680000     300.864582   -4622.842549   -5520.559539       0.000000       0.000000       0.000000   24956.540777  -31553.252464    1076.152148 
 4690000     312.059641   -4623.499762   -5554.620468       0.000000       0.000000       0.000000   24860.863908  -31553.265263    1137.780888 
 4700000     309.496738   -4614.236666   -5537.710203       0.000000       0.000000       0.000000   24980.702572  -31551.972976    1033.560201 
 4710000     299.996504   -4650.322610   -5545.449436       0.000000       0.000000       0.000000   24869.309873  -31550.444866    1135.685557 
 4720000     300.037743   -4583.451564   -5478.701440       0.000000       0.000000       0.000000   24925.336290  -31554.802097    1150.764368 
 4730000     286.835261   -4598.076296   -5453.932725       0.000000       0.000000       0.000000   24996.136682  -31548.517394    1098.447986 
 4740000     294.153782   -4628.756157   -5506.449523       0.000000       0.000000       0.000000   24967.648930  -31554.598325    1080.499872 
 4750000     317.354705   -4573.881512   -5520.801581       0.000000       0.000000       0.000000   24918.506702  -31552.882332    1113.574050 
 4760000     286.125900   -4682.554730   -5536.294575       0.000000       0.000000       0.000000   24840.724540  -31546.024816    1169.005701 
 4770000     309.358692   -4590.123385   -5513.185021       0.000000       0.000000       0.000000   25009.959782  -31558.404703    1035.259900 
 4780000     297.464628   -4641.026620   -5528.598859       0.000000       0.000000       0.000000   25016.824530  -31551.673252    1006.249863 
 4790000     304.704811   -4601.114498   -5510.289929       0.000000       0.000000       0.000000   24983.751386  -31554.865469    1060.824154 
 4800000     285.387244   -4624.273002   -5475.808853       0.000000       0.000000       0.000000   25052.514994  -31550.211652    1021.887804 
 4810000     297.386194   -4622.008337   -5509.346543       0.000000       0.000000       0.000000   24977.961397  -31547.981929    1060.673989 
 4820000     303.135133   -4568.917878   -5473.409718       0.000000       0.000000       0.000000   24964.734039  -31553.808310    1115.664552 
 4830000     290.858275   -4670.854151   -5538.714412       0.000000       0.000000       0.000000   24902.715258  -31554.934295    1113.504624 
 4840000     293.403263   -4658.788650   -5534.242626       0.000000       0.000000       0.000000   24967.502508  -31553.819651    1052.074518 
 4850000     297.726241   -4619.743057   -5508.095893       0.000000       0.000000       0.000000   24921.759732  -31551.225713    1121.370089 
 4860000     306.573548   -4685.535439   -5600.286790       0.000000       0.000000       0.000000   24804.655688  -31557.635619    1152.693141 
 4870000     304.704519   -4630.107224   -5539.281783       0.000000       0.000000       0.000000   24900.942279  -31554.373707    1114.149644 
 4880000     302.882559   -4643.895710   -5547.633920       0.000000       0.000000       0.000000   24943.774975  -31555.792007    1064.383112 
 4890000     298.443064   -4568.251405   -5458.743093       0.000000       0.000000       0.000000   25034.614095  -31553.462443    1060.105256 
 4900000     305.102399   -4679.506543   -5589.868292       0.000000       0.000000       0.000000   24809.842830  -31554.270692    1154.559569 
 4910000     311.997895   -4624.066167   -5555.002636       0.000000       0.000000       0.000000   24880.872308  -31552.772451    1116.897508 
 4920000     298.250395   -4604.532811   -5494.449615       0.000000       0.000000       0.000000   24991.380590  -31554.896645    1069.066440 
 4930000     309.216531   -4600.362051   -5522.999509       0.000000       0.000000       0.000000   24899.004171  -31551.258506    1129.254826 
 4940000     292.806273   -4726.258994   -5599.931676       0.000000       0.000000       0.000000   24909.286074  -31558.824972    1049.607222 
 4950000     309.444774   -4569.679814   -5492.998302       0.000000       0.000000       0.000000   24963.746458  -31550.756608    1094.011849 
 4960000     299.354656   -4633.590247   -5526.801935       0.000000       0.000000       0.000000   24901.540399  -31550.850312    1122.507978 
 4970000     303.834272   -4618.642236   -5525.220158       0.000000       0.000000       0.000000   24916.574479  -31556.144263    1114.349626 
 4980000     303.416596   -4603.042342   -5508.374007       0.000000       0.000000       0.000000   24959.114637  -31552.060918    1084.572275 
 4990000     308.636901   -4587.781005   -5508.688968       0.000000       0.000000       0.000000   24941.516661  -31554.386965    1104.181336 
 5000000     285.186256   -4663.726582   -5514.662725       0.000000       0.000000       0.000000   24910.462055  -31551.028108    1125.903328 
Loop time of 9804.5 on 8 procs for 5000000 steps with 1503 atoms

Performance: 44.061 ns/day, 0.545 hours/ns, 509.970 timesteps/s
99.2% CPU use with 8 MPI tasks x 1 OpenMP threads

MPI task timing breakdown:
Section |  min time  |  avg time  |  max time  |%varavg| %total
---------------------------------------------------------------
Pair    | 4870.9     | 4884.1     | 4908.6     |  17.2 | 49.81
Bond    | 1.3505     | 1.4503     | 1.6164     |   7.2 |  0.01
Kspace  | 2639       | 2657.7     | 2671.1     |  21.2 | 27.11
Neigh   | 352.26     | 352.39     | 352.5      |   0.4 |  3.59
Comm    | 453.99     | 467.08     | 485.43     |  41.8 |  4.76
Output  | 2.0243     | 2.4238     | 2.659      |  12.0 |  0.02
Modify  | 1332.3     | 1389.2     | 1424.5     |  71.7 | 14.17
Other   |            | 50.19      |            |       |  0.51

Nlocal:    187.875 ave 199 max 177 min
Histogram: 1 1 1 1 0 1 0 1 0 2
Nghost:    4590.38 ave 4608 max 4559 min
Histogram: 1 0 0 1 0 2 0 1 0 3
Neighs:    67340.8 ave 73192 max 61953 min
Histogram: 1 0 1 1 1 2 0 1 0 1

Total # of neighbors = 538726
Ave neighs/atom = 358.434
Ave special neighs/atom = 2
Neighbor list builds = 216914
Dangerous builds = 0
Total wall time: 3:16:19
