LAMMPS data file for surface + water cluster

1503 atoms
4 atom types
1002 bonds
2 bond types
501 angles
2 angle types
0 dihedrals
0 dihedral types

0   24.0    xlo xhi
0   24.0    ylo yhi
0   24.0    zlo zhi

Masses

1 15.9994     #Ow
2 1.008       #Hw
3 15.9994     #OH
4 1.008       #HH

Atoms # full

1             1    1 -0.84760   16.5000000000     7.5000000000    13.5000000000
2             1    2  0.42380   17.4714101626     7.2992022853    13.3733407644
3             1    2  0.42380   16.1905839551     7.1146874866    14.3693652664
4             2    1 -0.84760    1.5000000000    10.5000000000    19.5000000000
5             2    2  0.42380    1.3896475883    10.3818033291    20.4868393387
6             2    2  0.42380    0.6445646282    10.2650607809    19.0384440704
7             3    1 -0.84760    1.5000000000    13.5000000000    16.5000000000
8             3    2  0.42380    1.5542507101    14.4548552069    16.7920759875
9             3    2  0.42380    0.8303861285    13.4146513205    15.7622108335
10            4    1 -0.84760    4.5000000000     7.5000000000    16.5000000000
11            4    2  0.42380    3.6810140997     7.7247044143    15.9720132488
12            4    2  0.42380    5.1484846995     8.2594920449    16.4486247489
13            5    1 -0.84760    4.5000000000     4.5000000000    10.5000000000
14            5    2  0.42380    5.3690955524     4.9943059691    10.4817101688
15            5    2  0.42380    4.6086164151     3.6177727210    10.0418761186
16            6    1 -0.84760   13.5000000000    16.5000000000    13.5000000000
17            6    2  0.42380   12.6304286031    16.6462258819    13.9716604343
18            6    2  0.42380   13.7465347583    15.5320518813    13.5479274523
19            7    1 -0.84760    1.5000000000     1.5000000000    19.5000000000
20            7    2  0.42380    1.4957044045     2.3365834803    18.9521773859
21            7    2  0.42380    1.6481244898     0.7114722998    18.9031053780
22            8    1 -0.84760    4.5000000000    16.5000000000    16.5000000000
23            8    2  0.42380    4.8212107092    17.2439550629    15.9140353826
24            8    2  0.42380    4.6617281560    15.6241001802    16.0454194270
25            9    1 -0.84760   19.5000000000    13.5000000000    19.5000000000
26            9    2  0.42380   20.4552316679    13.2993527835    19.7174238796
27            9    2  0.42380   19.0736219561    12.6915861874    19.0942058902
28           10    1 -0.84760    4.5000000000    13.5000000000     7.5000000000
29           10    2  0.42380    4.1406929635    14.4299494300     7.5780544639
30           10    2  0.42380    5.4867999663    13.5092815257     7.6616776670
31           11    1 -0.84760   22.5000000000    13.5000000000    10.5000000000
32           11    2  0.42380   22.1188291678    12.5881645552    10.3474716207
33           11    2  0.42380   21.9698073191    14.1733634160     9.9847549911
34           12    1 -0.84760   16.5000000000     7.5000000000     4.5000000000
35           12    2  0.42380   16.0268037265     7.4208976742     3.6226015176
36           12    2  0.42380   17.3116967420     6.9159442181     4.4947816819
37           13    1 -0.84760   13.5000000000    10.5000000000    19.5000000000
38           13    2  0.42380   13.1280012555    10.2104585017    20.3819198620
39           13    2  0.42380   13.8319744203     9.7003970572    18.9995720768
40           14    1 -0.84760   10.5000000000     4.5000000000     4.5000000000
41           14    2  0.42380   10.5648023658     3.8006832821     3.7881314942
42           14    2  0.42380   10.1445989801     4.0890803010     5.3395445814
43           15    1 -0.84760    1.5000000000     1.5000000000     4.5000000000
44           15    2  0.42380    1.8900585647     1.9031784054     3.6721706228
45           15    2  0.42380    1.4558323636     0.5062150643     4.3978202097
46           16    1 -0.84760   22.5000000000     4.5000000000    10.5000000000
47           16    2  0.42380   22.5183552540     4.7258406190     9.5260086820
48           16    2  0.42380   21.7602266288     3.8510610365    10.6778020500
49           17    1 -0.84760   13.5000000000    22.5000000000    10.5000000000
50           17    2  0.42380   13.4417902520    22.2217575057    11.4587453926
51           17    2  0.42380   14.3607191215    22.9850262546    10.3453645760
52           18    1 -0.84760   16.5000000000     1.5000000000     7.5000000000
53           18    2  0.42380   16.6441266180     1.4992273547     6.5104410532
54           18    2  0.42380   15.5213497984     1.4331120075     7.6943444561
55           19    1 -0.84760   19.5000000000    10.5000000000    16.5000000000
56           19    2  0.42380   19.7408480823    11.0718455283    15.7157902824
57           19    2  0.42380   19.5534360063    11.0434597319    17.3377327146
58           20    1 -0.84760    1.5000000000    19.5000000000    16.5000000000
59           20    2  0.42380    1.4599882181    18.5201839895    16.6958561487
60           20    2  0.42380    1.3322710847    20.0150542302    17.3405867826
61           21    1 -0.84760   16.5000000000     7.5000000000     1.5000000000
62           21    2  0.42380   16.7888952283     7.8934143684     2.3727913095
63           21    2  0.42380   16.4893262600     6.5025967319     1.5712234531
64           22    1 -0.84760    4.5000000000    13.5000000000    22.5000000000
65           22    2  0.42380    4.5636277949    14.3947761437    22.9419583063
66           22    2  0.42380    4.8586755095    12.7980554812    23.1153257345
67           23    1 -0.84760   19.5000000000    13.5000000000    22.5000000000
68           23    2  0.42380   18.7287962396    13.7874093494    23.0680146247
69           23    2  0.42380   19.3219367195    13.7456552339    21.5471374903
70           24    1 -0.84760   16.5000000000     1.5000000000    16.5000000000
71           24    2  0.42380   16.9423732127     1.2137702459    17.3499285009
72           24    2  0.42380   16.2782520402     2.4737598317    16.5511822302
73           25    1 -0.84760    4.5000000000     1.5000000000    10.5000000000
74           25    2  0.42380    4.8703407644     0.7423800142    11.0374566619
75           25    2  0.42380    5.0200050857     2.3318208885    10.6940842820
76           26    1 -0.84760   10.5000000000     7.5000000000     4.5000000000
77           26    2  0.42380   11.0018212801     8.0716681789     3.8508691317
78           26    2  0.42380   10.1066219050     8.0759647759     5.2166018696
79           27    1 -0.84760   10.5000000000     4.5000000000    22.5000000000
80           27    2  0.42380   10.1227449962     4.2966526724    23.4035090009
81           27    2  0.42380   11.1219393963     3.7665472212    22.2257038155
82           28    1 -0.84760   16.5000000000    16.5000000000    22.5000000000
83           28    2  0.42380   16.5891160740    16.0384505806    23.3826270146
84           28    2  0.42380   15.5371283843    16.7086333254    22.3286804873
85           29    1 -0.84760    7.5000000000     4.5000000000    10.5000000000
86           29    2  0.42380    7.2590530369     5.0308401334     9.6875018142
87           29    2  0.42380    7.5219978454     5.1028317521    11.2975650203
88           30    1 -0.84760   13.5000000000    19.5000000000     1.5000000000
89           30    2  0.42380   13.0701488122    19.2011549801     2.3520091541
90           30    2  0.42380   14.3505339377    19.9832919731     1.7074147483
91           31    1 -0.84760   10.5000000000    10.5000000000    22.5000000000
92           31    2  0.42380   11.1669136659     9.8165232751    22.2032076198
93           31    2  0.42380   10.9713753574    11.2378371352    22.9831165724
94           32    1 -0.84760   13.5000000000    10.5000000000    10.5000000000
95           32    2  0.42380   13.8999926391    10.4664076603     9.5840974770
96           32    2  0.42380   12.5037569689    10.5467839924    10.4271229166
97           33    1 -0.84760   19.5000000000    19.5000000000     4.5000000000
98           33    2  0.42380   20.4439291999    19.3757515368     4.8058757480
99           33    2  0.42380   18.8969270079    18.9027518349     5.0287698778
100          34    1 -0.84760    7.5000000000    19.5000000000    16.5000000000
101          34    2  0.42380    6.5870410937    19.5454632849    16.9055109287
102          34    2  0.42380    8.1869630148    19.6769657354    17.2048155311
103          35    1 -0.84760    4.5000000000    22.5000000000     1.5000000000
104          35    2  0.42380    4.7237685933    22.9185391582     0.6197996945
105          35    2  0.42380    4.4349038420    23.2109725614     2.2002003251
106          36    1 -0.84760   22.5000000000    19.5000000000    16.5000000000
107          36    2  0.42380   23.4608558934    19.2232179356    16.4878497240
108          36    2  0.42380   22.0995153959    19.3536596053    15.5954578181
109          37    1 -0.84760    4.5000000000    10.5000000000    22.5000000000
110          37    2  0.42380    5.0127967286    11.2432162050    22.0702684840
111          37    2  0.42380    5.0082747104    10.1577743472    23.2902774257
112          38    1 -0.84760    1.5000000000    16.5000000000    16.5000000000
113          38    2  0.42380    1.7915588944    17.4323203124    16.2860555346
114          38    2  0.42380    0.8132161756    16.5239705517    17.2264663649
115          39    1 -0.84760   10.5000000000    13.5000000000    19.5000000000
116          39    2  0.42380   10.0053449312    14.2820280406    19.8791417872
117          39    2  0.42380   10.2122933687    13.3504229062    18.5540340516
118          40    1 -0.84760   16.5000000000     4.5000000000     4.5000000000
119          40    2  0.42380   16.8355778679     5.4213116697     4.3036017059
120          40    2  0.42380   16.9916749278     4.1268503940     5.2867751427
121          41    1 -0.84760   10.5000000000    19.5000000000    13.5000000000
122          41    2  0.42380   11.0587148392    20.1131960357    14.0584159189
123          41    2  0.42380    9.5859604636    19.4260621390    13.8988294207
124          42    1 -0.84760    1.5000000000    16.5000000000    19.5000000000
125          42    2  0.42380    2.4674047015    16.5821518005    19.2604604139
126          42    2  0.42380    0.9683827106    17.1618439566    18.9714684276
127          43    1 -0.84760   10.5000000000    22.5000000000    10.5000000000
128          43    2  0.42380   11.4239176280    22.3584340612    10.1445632407
129          43    2  0.42380   10.5145650901    23.2276361093    11.1858086750
130          44    1 -0.84760   16.5000000000    13.5000000000    19.5000000000
131          44    2  0.42380   16.4722996807    14.4004699679    19.9340351569
132          44    2  0.42380   17.0584141284    12.8808826863    20.0521479886
133          45    1 -0.84760   22.5000000000     1.5000000000     7.5000000000
134          45    2  0.42380   22.9745160556     1.8916023990     6.7116586638
135          45    2  0.42380   22.6259775710     2.0946778210     8.2940327002
136          46    1 -0.84760    1.5000000000    16.5000000000     1.5000000000
137          46    2  0.42380    1.4923923130    15.5962137088     1.9279164066
138          46    2  0.42380    1.2122071914    16.4193886036     0.5457059728
139          47    1 -0.84760    4.5000000000    16.5000000000     7.5000000000
140          47    2  0.42380    4.4940510772    15.5007878013     7.5392374890
141          47    2  0.42380    4.6331140765    16.8689058893     8.4198853601
142          48    1 -0.84760   16.5000000000    10.5000000000     1.5000000000
143          48    2  0.42380   16.8194469158     9.5840882593     1.2569787266
144          48    2  0.42380   17.2215269552    11.1658953550     1.3103102078
145          49    1 -0.84760    4.5000000000     1.5000000000    22.5000000000
146          49    2  0.42380    4.6543357672     2.4333601816    22.1759332930
147          49    2  0.42380    5.2241603963     1.2457172917    23.1410397904
148          50    1 -0.84760    1.5000000000     4.5000000000    13.5000000000
149          50    2  0.42380    2.0863154072     4.8749551901    12.7819172493
150          50    2  0.42380    1.5846334484     5.0587286584    14.3250208809
151          51    1 -0.84760   13.5000000000    16.5000000000    19.5000000000
152          51    2  0.42380   13.1321604554    15.6814268335    19.0588287989
153          51    2  0.42380   12.7612474053    16.9894301250    19.9633602754
154          52    1 -0.84760    4.5000000000     4.5000000000     4.5000000000
155          52    2  0.42380    3.7104481386     4.4312794556     3.8901759819
156          52    2  0.42380    4.6894248553     3.6042841719     4.9022578373
157          53    1 -0.84760   16.5000000000     4.5000000000    19.5000000000
158          53    2  0.42380   15.5754791917     4.8257757234    19.6978166861
159          53    2  0.42380   16.6458469771     4.4914652543    18.5107296600
160          54    1 -0.84760    1.5000000000    22.5000000000     7.5000000000
161          54    2  0.42380    1.8707098700    22.6717657875     8.4127270647
162          54    2  0.42380    0.8142486298    23.1946153967     7.2826190047
163          55    1 -0.84760    7.5000000000     1.5000000000     1.5000000000
164          55    2  0.42380    6.7054819963     1.0753135646     1.0659694001
165          55    2  0.42380    7.6200145174     1.1220887718     2.4180302868
166          56    1 -0.84760   19.5000000000    22.5000000000     1.5000000000
167          56    2  0.42380   19.7483460403    22.4248690480     0.5342466296
168          56    2  0.42380   18.9127165823    21.7314731744     1.7538989836
169          57    1 -0.84760    4.5000000000     4.5000000000    16.5000000000
170          57    2  0.42380    4.5659462813     5.1522318664    15.7448545381
171          57    2  0.42380    5.3855519895     4.0554300713    16.6347413840
172          58    1 -0.84760   22.5000000000    19.5000000000    10.5000000000
173          58    2  0.42380   21.6764908184    19.2774145467     9.9781874551
174          58    2  0.42380   22.4066915482    19.1540304982    11.4335944649
175          59    1 -0.84760   16.5000000000    10.5000000000    13.5000000000
176          59    2  0.42380   17.3511657968    11.0220073635    13.4449992094
177          59    2  0.42380   16.5695648157     9.8254886626    14.2349797142
178          60    1 -0.84760    4.5000000000    16.5000000000    19.5000000000
179          60    2  0.42380    4.5511074118    17.4787032597    19.6988163727
180          60    2  0.42380    3.7069969647    16.3190149488    18.9182865091
181          61    1 -0.84760   19.5000000000     4.5000000000     1.5000000000
182          61    2  0.42380   19.4698866794     3.9531884138     2.3367139686
183          61    2  0.42380   18.8525939311     5.2585381867     1.5740620647
184          62    1 -0.84760   19.5000000000     4.5000000000    19.5000000000
185          62    2  0.42380   19.4272549104     3.9402615523    18.6745298247
186          62    2  0.42380   19.2253356565     5.4386621674    19.2914986283
187          63    1 -0.84760   13.5000000000    10.5000000000     1.5000000000
188          63    2  0.42380   13.3073226036     9.5241485596     1.3970953095
189          63    2  0.42380   14.3096128237    10.6211435870     2.0743268192
190          64    1 -0.84760   16.5000000000    13.5000000000     7.5000000000
191          64    2  0.42380   17.1893600863    12.7932296210     7.6589285718
192          64    2  0.42380   15.6192931620    13.1938630023     7.8614354608
193          65    1 -0.84760    1.5000000000    10.5000000000     7.5000000000
194          65    2  0.42380    0.5057064087    10.4500988482     7.5942874197
195          65    2  0.42380    1.7516727509    10.3563984147     6.5429005280
196          66    1 -0.84760   10.5000000000    13.5000000000     1.5000000000
197          66    2  0.42380   10.5961411671    13.6845059375     0.5218822038
198          66    2  0.42380   10.0118031012    14.2563353958     1.9354544123
199          67    1 -0.84760    4.5000000000    13.5000000000     4.5000000000
200          67    2  0.42380    3.5618197602    13.2106067934     4.6899194507
201          67    2  0.42380    5.0168288951    13.5375473394     5.3552649172
202          68    1 -0.84760   13.5000000000     7.5000000000     4.5000000000
203          68    2  0.42380   13.4435128601     7.8210886463     5.4453630374
204          68    2  0.42380   14.4601376205     7.4087492220     4.2357860085
205          69    1 -0.84760    4.5000000000    13.5000000000     1.5000000000
206          69    2  0.42380    3.7819720167    13.3677573789     2.1833357100
207          69    2  0.42380    4.6145141979    12.6597988189     0.9699542831
208          70    1 -0.84760   13.5000000000    16.5000000000    22.5000000000
209          70    2  0.42380   12.6275394276    16.8364191106    22.1455501166
210          70    2  0.42380   14.2313866674    16.7293180060    21.8577486605
211          71    1 -0.84760   22.5000000000     1.5000000000    16.5000000000
212          71    2  0.42380   23.3812386598     1.6008695130    16.0382167674
213          71    2  0.42380   22.6037927938     0.8918842759    17.2870338685
214          72    1 -0.84760   10.5000000000     1.5000000000    13.5000000000
215          72    2  0.42380   10.6814382246     2.3835261854    13.0681879592
216          72    2  0.42380   11.2342444816     1.2870084313    14.1446081143
217          73    1 -0.84760   22.5000000000    19.5000000000    22.5000000000
218          73    2  0.42380   22.4577846381    20.3259823902    21.9378870732
219          73    2  0.42380   23.0978167576    18.8287703338    22.0617468223
220          74    1 -0.84760    4.5000000000     7.5000000000     7.5000000000
221          74    2  0.42380    4.5396865107     6.6078508865     7.0500056352
222          74    2  0.42380    4.4221641415     8.2186707065     6.8090195495
223          75    1 -0.84760   19.5000000000     7.5000000000    10.5000000000
224          75    2  0.42380   18.8702826623     7.8217525383     9.7929417514
225          75    2  0.42380   19.6784994421     8.2395688370    11.1489806412
226          76    1 -0.84760   10.5000000000    16.5000000000     4.5000000000
227          76    2  0.42380    9.5026917259    16.4397764874     4.4581750895
228          76    2  0.42380   10.9014185031    15.7817986654     3.9316251091
229          77    1 -0.84760   19.5000000000    22.5000000000    16.5000000000
230          77    2  0.42380   18.6390861138    22.8229310093    16.1068806391
231          77    2  0.42380   19.9931824001    21.9561261172    15.8210505850
232          78    1 -0.84760   19.5000000000    19.5000000000     1.5000000000
233          78    2  0.42380   19.3469506369    18.8940129491     2.2806123076
234          78    2  0.42380   20.1798270368    20.1918185121     1.7433563942
235          79    1 -0.84760   10.5000000000    13.5000000000     4.5000000000
236          79    2  0.42380   10.6241665291    13.0079427903     5.3616625578
237          79    2  0.42380   10.7530237720    14.4594045625     4.6245866947
238          80    1 -0.84760    1.5000000000    13.5000000000     4.5000000000
239          80    2  0.42380    2.3716965866    13.4570307039     4.9881584668
240          80    2  0.42380    0.8314691565    13.9954648072     5.0545999678
241          81    1 -0.84760    1.5000000000    13.5000000000     1.5000000000
242          81    2  0.42380    0.8172241798    12.9133494585     1.9354977723
243          81    2  0.42380    1.7921849562    14.2065579528     2.1445182689
244          82    1 -0.84760   19.5000000000    16.5000000000    19.5000000000
245          82    2  0.42380   18.6266463724    16.8450833740    19.1562400630
246          82    2  0.42380   19.5704008634    15.5211145613    19.3080963665
247          83    1 -0.84760    7.5000000000    10.5000000000    13.5000000000
248          83    2  0.42380    8.2713590575    10.9347894349    13.0352814401
249          83    2  0.42380    7.8393365976     9.7862085942    14.1126601755
250          84    1 -0.84760    7.5000000000     1.5000000000    16.5000000000
251          84    2  0.42380    6.6369496547     0.9972724012    16.5490820851
252          84    2  0.42380    7.4970079923     2.0892661442    15.6920665576
253          85    1 -0.84760    7.5000000000    10.5000000000    16.5000000000
254          85    2  0.42380    7.3626981759     9.6341691682    16.0188709446
255          85    2  0.42380    6.7367892671    10.6578095624    17.1265824027
256          86    1 -0.84760    4.5000000000    16.5000000000     1.5000000000
257          86    2  0.42380    4.6394117100    16.9559748033     2.3790058828
258          86    2  0.42380    3.9410906689    15.6816623162     1.6339544067
259          87    1 -0.84760   19.5000000000    10.5000000000     7.5000000000
260          87    2  0.42380   20.0600416531    10.8042560016     6.7294277319
261          87    2  0.42380   19.7008060509     9.5409660463     7.6998269095
262          88    1 -0.84760   19.5000000000    19.5000000000    19.5000000000
263          88    2  0.42380   19.8414176186    18.8616132223    20.1898523900
264          88    2  0.42380   18.7500935421    20.0376236277    19.8854881678
265          89    1 -0.84760   19.5000000000    22.5000000000    22.5000000000
266          89    2  0.42380   19.0141373502    21.8853078371    23.1213622281
267          89    2  0.42380   20.0613826334    23.1349817399    23.0307049247
268          90    1 -0.84760   22.5000000000     1.5000000000    22.5000000000
269          90    2  0.42380   22.3928457033     1.2050614451    21.5505110882
270          90    2  0.42380   21.6574411362     1.3117096469    23.0046199482
271          91    1 -0.84760    7.5000000000     1.5000000000    22.5000000000
272          91    2  0.42380    7.2113202724     0.5807509608    22.2323337771
273          91    2  0.42380    7.2764853551     1.6524662845    23.4627020431
274          92    1 -0.84760    7.5000000000     4.5000000000    16.5000000000
275          92    2  0.42380    7.2493693457     4.6876569418    15.5502794435
276          92    2  0.42380    8.3465440503     4.9833300526    16.7230587800
277          93    1 -0.84760    1.5000000000    16.5000000000     4.5000000000
278          93    2  0.42380    2.1328657291    17.1890255722     4.1468361317
279          93    2  0.42380    0.7067509589    16.9532510931     4.9065948765
280          94    1 -0.84760   10.5000000000    16.5000000000     1.5000000000
281          94    2  0.42380   10.6031255394    16.9532004730     0.6145766874
282          94    2  0.42380    9.5555263259    16.1894999192     1.6075135660
283          95    1 -0.84760    1.5000000000    19.5000000000    22.5000000000
284          95    2  0.42380    2.4303593570    19.7053998524    22.1962857334
285          95    2  0.42380    0.8780583502    20.2118357244    22.1736896050
286          96    1 -0.84760   19.5000000000    19.5000000000    13.5000000000
287          96    2  0.42380   20.3453116468    19.6328758864    12.9825135685
288          96    2  0.42380   18.7174555158    19.5544034346    12.8797868232
289          97    1 -0.84760   10.5000000000    16.5000000000    10.5000000000
290          97    2  0.42380   10.0100737599    16.1407300729    11.2942904928
291          97    2  0.42380    9.8413942674    16.8140138147     9.8161624452
292          98    1 -0.84760   13.5000000000     4.5000000000    10.5000000000
293          98    2  0.42380   13.4297352040     3.5685756320    10.8570875150
294          98    2  0.42380   13.0758477242     4.5430595311     9.5954334121
295          99    1 -0.84760   13.5000000000    10.5000000000    16.5000000000
296          99    2  0.42380   12.8750788164     9.8669364164    16.9568413309
297          99    2  0.42380   13.2701399283    11.4387309960    16.7568043082
298         100    1 -0.84760   16.5000000000    16.5000000000     7.5000000000
299         100    2  0.42380   17.4326266770    16.6425264703     7.8315021491
300         100    2  0.42380   16.1573757131    17.3472946051     7.0941669821
301         101    1 -0.84760   22.5000000000     7.5000000000     7.5000000000
302         101    2  0.42380   21.6077846649     7.8702964310     7.2414804897
303         101    2  0.42380   22.8754173360     8.0335423110     8.2578881279
304         102    1 -0.84760   16.5000000000    10.5000000000     4.5000000000
305         102    2  0.42380   16.5413669884     9.9078880186     5.3047932417
306         102    2  0.42380   16.1836078765     9.9707610326     3.7127248716
307         103    1 -0.84760   19.5000000000     1.5000000000    19.5000000000
308         103    2  0.42380   19.3259052687     2.3174792538    20.0490161038
309         103    2  0.42380   20.4767605171     1.2866323950    19.5203259829
310         104    1 -0.84760   13.5000000000    19.5000000000    16.5000000000
311         104    2  0.42380   13.1036459058    19.4504443078    17.4167593215
312         104    2  0.42380   13.7771769640    20.4412636178    16.3071380791
313         105    1 -0.84760   16.5000000000    19.5000000000     1.5000000000
314         105    2  0.42380   15.6932140448    19.0996075867     1.9344908815
315         105    2  0.42380   16.3270284283    20.4645102056     1.3004984040
316         106    1 -0.84760   22.5000000000     4.5000000000     1.5000000000
317         106    2  0.42380   21.9586662855     5.2785067091     1.8176241516
318         106    2  0.42380   23.3348850761     4.8316258942     1.0606924038
319         107    1 -0.84760   10.5000000000     1.5000000000     4.5000000000
320         107    2  0.42380   10.3981005851     0.5134592126     4.3721181321
321         107    2  0.42380   11.4644770629     1.7494936167     4.4131845723
322         108    1 -0.84760   22.5000000000    10.5000000000     7.5000000000
323         108    2  0.42380   22.0052773567    11.2728988051     7.1026626981
324         108    2  0.42380   22.9879108542    10.8020716311     8.3189601432
325         109    1 -0.84760    7.5000000000    13.5000000000    19.5000000000
326         109    2  0.42380    7.2140295089    14.4476436574    19.3579001587
327         109    2  0.42380    7.8904867997    13.1391120319    18.6530762006
328         110    1 -0.84760   22.5000000000     4.5000000000    22.5000000000
329         110    2  0.42380   23.2463991971     4.1513038522    23.0668326237
330         110    2  0.42380   21.7467137209     4.7971942672    23.0867157212
331         111    1 -0.84760    1.5000000000    10.5000000000     1.5000000000
332         111    2  0.42380    1.4307030278    10.7557553463     0.5357453030
333         111    2  0.42380    2.2771709637    10.9728489363     1.9152338676
334         112    1 -0.84760   10.5000000000    13.5000000000     7.5000000000
335         112    2  0.42380   10.0460185024    14.3550070470     7.7507264196
336         112    2  0.42380   11.4698369895    13.5555145571     7.7373485536
337         113    1 -0.84760    7.5000000000    13.5000000000     7.5000000000
338         113    2  0.42380    7.9053877060    14.4128668014     7.4516781730
339         113    2  0.42380    6.5052309801    13.5799937897     7.5635262062
340         114    1 -0.84760   19.5000000000     7.5000000000    13.5000000000
341         114    2  0.42380   19.4386167088     7.4104142538    14.4940857477
342         114    2  0.42380   18.9705244023     8.2948760545    13.2036427195
343         115    1 -0.84760   19.5000000000    13.5000000000    10.5000000000
344         115    2  0.42380   19.2871583799    12.5254870232    10.5708723567
345         115    2  0.42380   20.0536925384    13.7781807903    11.2848821625
346         116    1 -0.84760   22.5000000000    10.5000000000    10.5000000000
347         116    2  0.42380   21.7955879825    10.3883935854    11.2009619862
348         116    2  0.42380   22.6001524777     9.6461602098     9.9891897789
349         117    1 -0.84760    1.5000000000     1.5000000000    10.5000000000
350         117    2  0.42380    1.9614540328     0.7559781091    10.0167903254
351         117    2  0.42380    2.1609108044     1.9871424830    11.0708669706
352         118    1 -0.84760   13.5000000000     7.5000000000    22.5000000000
353         118    2  0.42380   13.6935062711     7.4337839864    21.5211380328
354         118    2  0.42380   14.2755903284     7.1395661779    23.0182152936
355         119    1 -0.84760   16.5000000000    13.5000000000    10.5000000000
356         119    2  0.42380   16.7719843897    13.1215184191     9.6152536110
357         119    2  0.42380   17.1443410831    14.2160550567    10.7684952747
358         120    1 -0.84760    4.5000000000    16.5000000000    13.5000000000
359         120    2  0.42380    4.7671678297    15.8777547910    14.2358207926
360         120    2  0.42380    5.2905440494    16.6845844005    12.9160747538
361         121    1 -0.84760    7.5000000000    16.5000000000    13.5000000000
362         121    2  0.42380    7.8924227812    15.8937943741    12.8082492586
363         121    2  0.42380    8.2024530968    17.1327787947    13.8258076610
364         122    1 -0.84760   22.5000000000     1.5000000000    13.5000000000
365         122    2  0.42380   23.0008320960     1.4625488911    12.6352661599
366         122    2  0.42380   21.7145319657     2.1114190122    13.4040482057
367         123    1 -0.84760   10.5000000000    16.5000000000    19.5000000000
368         123    2  0.42380   11.0231762183    15.9507790303    18.8483536548
369         123    2  0.42380    9.5230214633    16.3315335602    19.3691107884
370         124    1 -0.84760    4.5000000000    13.5000000000    16.5000000000
371         124    2  0.42380    5.1166997920    14.2812141290    16.5968805418