LAMMPS (3 Mar 2020)
  using 1 OpenMP thread(s) per MPI task
Reading data file ...
  orthogonal box = (0 0 0) to (24 24 24)
  2 by 2 by 2 MPI processor grid
  reading atoms ...
  1503 atoms
  scanning bonds ...
  2 = max bonds/atom
  scanning angles ...
  1 = max angles/atom
  reading bonds ...
  1002 bonds
  reading angles ...
  501 angles
Finding 1-2 1-3 1-4 neighbors ...
  special bond factors lj:   0          0          0         
  special bond factors coul: 0          0          0         
  2 = max # of 1-2 neighbors
  1 = max # of 1-3 neighbors
  1 = max # of 1-4 neighbors
  2 = max # of special neighbors
  special bonds CPU = 0.00102066 secs
  read_data CPU = 0.0155549 secs
Setting atom values ...
  1 settings made for charge
Setting atom values ...
  2 settings made for charge
WARNING: Using 'neigh_modify every 1 delay 0 check yes' setting during minimization (src/min.cpp:190)
PPPM initialization ...
  using 12-bit tables for long-range coulomb (src/kspace.cpp:332)
  G vector (1/distance) = 0.315108
  grid = 24 24 24
  stencil order = 5
  estimated absolute RMS force accuracy = 0.00171257
  estimated relative force accuracy = 5.15737e-06
  using double precision MKL FFT
  3d grid and FFT values/proc = 6859 1728
Neighbor list info ...
  update every 1 steps, delay 0 steps, check yes
  max neighbors/atom: 2000, page size: 100000
  master list distance cutoff = 12
  ghost atom cutoff = 12
  binsize = 6, bins = 4 4 4
  3 neighbor lists, perpetual/occasional/extra = 3 0 0
  (1) pair lj/cut/coul/long, perpetual, skip from (3)
      attributes: half, newton on
      pair build: skip
      stencil: none
      bin: none
  (2) pair lj/cut/coul/long/soft, perpetual, skip from (3)
      attributes: half, newton on
      pair build: skip
      stencil: none
      bin: none
  (3) neighbor class addition, perpetual
      attributes: half, newton on
      pair build: half/bin/newton
      stencil: half/bin/3d/newton
      bin: standard
Setting up cg style minimization ...
  Unit style    : real
  Current step  : 0
Per MPI rank memory allocation (min/avg/max) = 10.15 | 10.15 | 10.16 Mbytes
Step Temp E_pair E_mol TotEng Press 
       0            0   -241.71372   0.56510211   -241.14861    17981.126 
      71            0    -6859.111    376.38082   -6482.7302   -4560.7048 
Loop time of 0.264886 on 8 procs for 71 steps with 1503 atoms

98.7% CPU use with 8 MPI tasks x 1 OpenMP threads

Minimization stats:
  Stopping criterion = energy tolerance
  Energy initial, next-to-last, final = 
        -241.148614679     -6478.06773648     -6482.73016686
  Force two-norm initial, final = 681.287 87.1301
  Force max component initial, final = 40.0402 8.02336
  Final line search alpha, max atom move = 0.00515754 0.0413808
  Iterations, force evaluations = 71 122

MPI task timing breakdown:
Section |  min time  |  avg time  |  max time  |%varavg| %total
---------------------------------------------------------------
Pair    | 0.18059    | 0.18365    | 0.18924    |   0.7 | 69.33
Bond    | 0.00063227 | 0.00065662 | 0.00067637 |   0.0 |  0.25
Kspace  | 0.055813   | 0.061422   | 0.064558   |   1.2 | 23.19
Neigh   | 0.0043623  | 0.0043844  | 0.0044195  |   0.0 |  1.66
Comm    | 0.011796   | 0.012044   | 0.012389   |   0.2 |  4.55
Output  | 0          | 0          | 0          |   0.0 |  0.00
Modify  | 0          | 0          | 0          |   0.0 |  0.00
Other   |            | 0.002724   |            |       |  1.03

Nlocal:    187.875 ave 192 max 186 min
Histogram: 2 2 0 2 0 1 0 0 0 1
Nghost:    4884.75 ave 4908 max 4870 min
Histogram: 1 1 2 1 0 1 1 0 0 1
Neighs:    72751.2 ave 75517 max 70874 min
Histogram: 1 0 1 3 2 0 0 0 0 1

Total # of neighbors = 582010
Ave neighs/atom = 387.232
Ave special neighs/atom = 2
Neighbor list builds = 3
Dangerous builds = 0
Finding SHAKE clusters ...
  0 = # of size 2 clusters
  0 = # of size 3 clusters
  0 = # of size 4 clusters
  501 = # of frozen angles
  find clusters CPU = 0.000309467 secs
PPPM initialization ...
  using 12-bit tables for long-range coulomb (src/kspace.cpp:332)
  G vector (1/distance) = 0.315108
  grid = 24 24 24
  stencil order = 5
  estimated absolute RMS force accuracy = 0.00171257
  estimated relative force accuracy = 5.15737e-06
  using double precision MKL FFT
  3d grid and FFT values/proc = 6859 1728
Neighbor list info ...
  update every 1 steps, delay 10 steps, check yes
  max neighbors/atom: 2000, page size: 100000
  master list distance cutoff = 12
  ghost atom cutoff = 12
  binsize = 6, bins = 4 4 4
  3 neighbor lists, perpetual/occasional/extra = 3 0 0
  (1) pair lj/cut/coul/long, perpetual, skip from (3)
      attributes: half, newton on
      pair build: skip
      stencil: none
      bin: none
  (2) pair lj/cut/coul/long/soft, perpetual, skip from (3)
      attributes: half, newton on
      pair build: skip
      stencil: none
      bin: none
  (3) neighbor class addition, perpetual
      attributes: half, newton on
      pair build: half/bin/newton
      stencil: half/bin/3d/newton
      bin: standard
Setting up Verlet run ...
  Unit style    : real
  Current step  : 71
  Time step     : 1
Per MPI rank memory allocation (min/avg/max) = 9.904 | 9.905 | 9.906 Mbytes
Step Temp TotEng PotEng E_bond E_angle E_dihed E_coul E_long E_vdwl 
      71     300.000000   -5963.973726   -6859.110984       0.000000       0.000000       0.000000   23549.814130  -31828.319471    1419.394358 
   10000     305.254073   -4578.832911   -5489.647224       0.000000       0.000000       0.000000   25279.166461  -31820.816287    1052.002603 
   20000     308.485670   -4649.430270   -5569.886991       0.000000       0.000000       0.000000   25113.293025  -31823.123877    1139.943861 
   30000     309.141138   -4584.355362   -5506.767865       0.000000       0.000000       0.000000   25278.563588  -31817.923595    1032.592141 
   40000     298.401901   -4686.740932   -5577.109796       0.000000       0.000000       0.000000   25169.835431  -31819.044160    1072.098933 
   50000     300.717332   -4685.028329   -5582.305955       0.000000       0.000000       0.000000   25040.840430  -31820.502009    1197.355624 
   60000     315.102051   -4580.406014   -5520.604633       0.000000       0.000000       0.000000   25277.611677  -31821.738060    1023.521750 
   70000     294.548717   -4695.309986   -5574.181754       0.000000       0.000000       0.000000   25152.791504  -31823.909203    1096.935945 
   80000     296.015977   -4659.672399   -5542.922166       0.000000       0.000000       0.000000   25181.455637  -31817.304217    1092.926414 
   90000     311.443119   -4565.295473   -5494.576604       0.000000       0.000000       0.000000   25281.112878  -31814.843348    1039.153866 
  100000     299.132206   -4629.477313   -5522.025255       0.000000       0.000000       0.000000   25190.223513  -31815.616256    1103.367489 
  110000     297.919320   -4670.682319   -5559.611261       0.000000       0.000000       0.000000   25181.828841  -31816.004945    1074.564843 
  120000     302.015492   -4582.773513   -5483.924578       0.000000       0.000000       0.000000   25294.114075  -31819.046815    1041.008162 
  130000     298.275758   -4610.029288   -5500.021767       0.000000       0.000000       0.000000   25195.445434  -31818.821772    1123.354570 
  140000     307.374343   -4626.942145   -5544.082901       0.000000       0.000000       0.000000   25104.691818  -31817.754313    1168.979594 
  150000     301.058287   -4672.271897   -5570.566862       0.000000       0.000000       0.000000   25129.030477  -31819.334590    1119.737251 
  160000     304.258115   -4632.539949   -5540.382531       0.000000       0.000000       0.000000   25184.050743  -31821.331547    1096.898273 
  170000     304.858334   -4619.861847   -5529.495356       0.000000       0.000000       0.000000   25242.983600  -31822.514681    1050.035725 
  180000     295.226993   -4697.906201   -5578.801806       0.000000       0.000000       0.000000   25109.560407  -31821.844845    1133.482632 
  190000     316.567876   -4670.787887   -5615.360221       0.000000       0.000000       0.000000   25091.816739  -31821.907598    1114.730638 
  200000     281.104736   -4691.098771   -5529.856512       0.000000       0.000000       0.000000   25229.852512  -31815.644406    1055.935382 
  210000     290.106099   -4651.679662   -5517.295588       0.000000       0.000000       0.000000   25159.243291  -31820.407251    1143.868372 
  220000     304.056829   -4604.305037   -5511.547025       0.000000       0.000000       0.000000   25228.066496  -31818.622200    1079.008680 
  230000     301.615915   -4576.238693   -5476.197504       0.000000       0.000000       0.000000   25268.890368  -31819.405771    1074.317899 
  240000     298.771825   -4683.491601   -5574.964242       0.000000       0.000000       0.000000   25148.320451  -31820.956724    1097.672031 
  250000     296.925057   -4586.388721   -5472.350994       0.000000       0.000000       0.000000   25281.060221  -31821.410114    1067.998899 
  260000     291.976843   -4685.565427   -5556.763263       0.000000       0.000000       0.000000   25168.987366  -31818.654958    1092.904329 
  270000     299.432748   -4622.227961   -5515.672658       0.000000       0.000000       0.000000   25176.327323  -31820.264798    1128.264817 
  280000     294.572583   -4712.773137   -5591.716118       0.000000       0.000000       0.000000   25113.331754  -31821.577794    1116.529922 
  290000     305.971942   -4643.150175   -5556.106458       0.000000       0.000000       0.000000   25165.656952  -31823.515839    1101.752429 
  300000     290.684291   -4649.966082   -5517.307212       0.000000       0.000000       0.000000   25235.664631  -31818.398738    1065.426895 
  310000     299.581302   -4613.035909   -5506.923860       0.000000       0.000000       0.000000   25196.107144  -31820.313981    1117.282977 
  320000     292.975183   -4646.851361   -5521.028035       0.000000       0.000000       0.000000   25197.742956  -31825.810940    1107.039950 
  330000     310.584250   -4604.056255   -5530.774700       0.000000       0.000000       0.000000   25265.780966  -31819.370110    1022.814443 
  340000     307.256754   -4618.858423   -5535.648316       0.000000       0.000000       0.000000   25191.958014  -31818.632888    1091.026558 
  350000     304.105706   -4589.142930   -5496.530756       0.000000       0.000000       0.000000   25220.889195  -31819.894657    1102.474706 
  360000     296.089866   -4627.576891   -5511.047126       0.000000       0.000000       0.000000   25200.650786  -31818.909365    1107.211454 
  370000     299.013368   -4661.494354   -5553.687708       0.000000       0.000000       0.000000   25145.267950  -31821.074871    1122.119213 
  380000     291.987124   -4665.984039   -5537.212551       0.000000       0.000000       0.000000   25229.328685  -31817.834728    1051.293492 
  390000     303.592540   -4570.416348   -5476.272993       0.000000       0.000000       0.000000   25293.470991  -31816.852574    1047.108589 
  400000     305.431779   -4615.137649   -5526.482199       0.000000       0.000000       0.000000   25210.371615  -31818.312125    1081.458311 
  410000     303.711367   -4588.410406   -5494.621607       0.000000       0.000000       0.000000   25210.240825  -31821.730183    1116.867752 
  420000     296.130970   -4674.078946   -5557.671827       0.000000       0.000000       0.000000   25188.299433  -31814.844609    1068.873348 
  430000     286.208253   -4711.758018   -5565.743588       0.000000       0.000000       0.000000   25129.906869  -31821.709753    1126.059296 
  440000     314.196880   -4553.976285   -5491.474063       0.000000       0.000000       0.000000   25274.443943  -31820.209884    1054.291877 
  450000     301.884236   -4663.984029   -5564.743452       0.000000       0.000000       0.000000   25113.817649  -31818.704229    1140.143128 
  460000     294.459582   -4584.639523   -5463.245333       0.000000       0.000000       0.000000   25294.308349  -31820.572623    1063.018941 
  470000     296.026467   -4597.537277   -5480.818343       0.000000       0.000000       0.000000   25270.977596  -31821.315110    1069.519170 
  480000     300.830042   -4668.724986   -5566.338916       0.000000       0.000000       0.000000   25135.666957  -31818.686920    1116.681048 
  490000     304.205112   -4645.617352   -5553.301786       0.000000       0.000000       0.000000   25212.536987  -31824.197677    1058.358904 
  500000     308.795689   -4659.238702   -5580.620455       0.000000       0.000000       0.000000   25137.499166  -31816.777705    1098.658084 
  510000     295.913404   -4758.266565   -5641.210275       0.000000       0.000000       0.000000   25006.515632  -31821.441344    1173.715437 
  520000     293.939935   -4603.344001   -5480.399292       0.000000       0.000000       0.000000   25177.287728  -31817.489188    1159.802167 
  530000     305.755115   -4572.221294   -5484.530612       0.000000       0.000000       0.000000   25321.095526  -31818.411429    1012.785291 
  540000     298.326909   -4606.792011   -5496.937114       0.000000       0.000000       0.000000   25260.288765  -31820.909612    1063.683733 
  550000     299.229456   -4611.812500   -5504.650616       0.000000       0.000000       0.000000   25234.344294  -31823.290460    1084.295551 
  560000     304.369633   -4641.405754   -5549.581083       0.000000       0.000000       0.000000   25121.963330  -31818.992609    1147.448196 
  570000     291.355094   -4622.706270   -5492.048937       0.000000       0.000000       0.000000   25284.861153  -31818.075639    1041.165550 
  580000     296.275516   -4643.718738   -5527.742914       0.000000       0.000000       0.000000   25178.285598  -31821.818296    1115.789784 
  590000     289.124357   -4601.210514   -5463.897128       0.000000       0.000000       0.000000   25350.665942  -31821.230076    1006.667007 
  600000     289.401887   -4644.429967   -5507.944673       0.000000       0.000000       0.000000   25257.052461  -31814.268563    1049.271429 
  610000     290.438417   -4650.022085   -5516.629578       0.000000       0.000000       0.000000   25192.613792  -31817.910809    1108.667439 
  620000     288.336460   -4561.583340   -5421.919033       0.000000       0.000000       0.000000   25356.585094  -31816.522246    1038.018118 
  630000     300.073382   -4642.134316   -5537.490532       0.000000       0.000000       0.000000   25170.691971  -31824.072858    1115.890355 
  640000     293.621398   -4642.214983   -5518.319828       0.000000       0.000000       0.000000   25220.259974  -31822.278936    1083.699134 
  650000     302.638220   -4561.522065   -5464.531220       0.000000       0.000000       0.000000   25340.137719  -31815.813773    1011.144834 
  660000     293.263469   -4661.593235   -5536.630094       0.000000       0.000000       0.000000   25161.224470  -31819.600579    1121.746015 
  670000     301.197592   -4657.758573   -5556.469194       0.000000       0.000000       0.000000   25137.576559  -31817.902859    1123.857106 
  680000     281.530890   -4717.068503   -5557.097801       0.000000       0.000000       0.000000   25142.402166  -31814.106666    1114.606699 
  690000     300.190420   -4636.634200   -5532.339632       0.000000       0.000000       0.000000   25173.647846  -31823.890628    1117.903150 
  700000     294.629385   -4688.969072   -5568.081539       0.000000       0.000000       0.000000   25199.032540  -31820.937416    1053.823337 
  710000     290.569247   -4662.977596   -5529.975460       0.000000       0.000000       0.000000   25197.495108  -31821.025404    1093.554836 
  720000     288.071797   -4686.394472   -5545.940468       0.000000       0.000000       0.000000   25075.707271  -31819.224412    1197.576673 
  730000     285.002899   -4620.948005   -5471.337051       0.000000       0.000000       0.000000   25235.487766  -31813.642806    1106.817989 
  740000     293.658701   -4676.788567   -5553.004715       0.000000       0.000000       0.000000   25156.606134  -31815.037757    1105.426908 
  750000     284.255965   -4688.014345   -5536.174694       0.000000       0.000000       0.000000   25172.520580  -31820.677449    1111.982175 
  760000     308.553198   -4576.406673   -5497.064886       0.000000       0.000000       0.000000   25294.082045  -31818.656867    1027.509937 
  770000     302.227537   -4602.347401   -5504.131165       0.000000       0.000000       0.000000   25268.824525  -31819.131331    1046.175641 
  780000     304.824063   -4611.898681   -5521.429935       0.000000       0.000000       0.000000   25199.776816  -31824.146442    1102.939691 
  790000     296.576701   -4634.852952   -5519.775801       0.000000       0.000000       0.000000   25180.846396  -31821.670301    1121.048104 
  800000     311.769729   -4583.329581   -5513.585248       0.000000       0.000000       0.000000   25191.018121  -31819.132646    1114.529277 
  810000     296.067628   -4635.982899   -5519.386782       0.000000       0.000000       0.000000   25156.882133  -31819.304613    1143.035698 
  820000     290.358106   -4664.653834   -5531.021696       0.000000       0.000000       0.000000   25194.377936  -31817.762160    1092.362528 
  830000     309.682776   -4605.684813   -5529.713448       0.000000       0.000000       0.000000   25146.343656  -31813.814465    1137.757361 
  840000     295.093914   -4706.876256   -5587.374778       0.000000       0.000000       0.000000   25116.061662  -31822.390884    1118.954443 
  850000     294.334822   -4675.777570   -5554.011120       0.000000       0.000000       0.000000   25168.689566  -31820.263620    1097.562934 
  860000     309.878959   -4592.752344   -5517.366349       0.000000       0.000000       0.000000   25226.134332  -31818.031727    1074.531045 
  870000     303.067648   -4604.250574   -5508.541051       0.000000       0.000000       0.000000   25234.139224  -31820.025275    1077.345000 
  880000     310.808598   -4560.811304   -5488.199159       0.000000       0.000000       0.000000   25232.842348  -31821.413940    1100.372433 
  890000     285.105487   -4688.711391   -5539.406536       0.000000       0.000000       0.000000   25130.422416  -31818.040795    1148.211844 
  900000     298.218188   -4640.392582   -5530.213285       0.000000       0.000000       0.000000   25176.881328  -31821.761997    1114.667383 
  910000     291.426864   -4688.151712   -5557.708525       0.000000       0.000000       0.000000   25150.211756  -31819.667422    1111.747141 
  920000     303.541472   -4670.954623   -5576.658893       0.000000       0.000000       0.000000   25224.530045  -31821.604887    1020.415949 
  930000     301.305283   -4620.451084   -5519.483033       0.000000       0.000000       0.000000   25253.186827  -31822.163627    1049.493767 
  940000     305.848764   -4540.579411   -5453.168159       0.000000       0.000000       0.000000   25283.742962  -31816.458572    1079.547452 
  950000     303.911107   -4602.213301   -5509.020484       0.000000       0.000000       0.000000   25242.213071  -31817.313890    1066.080335 
  960000     287.343264   -4733.087872   -5590.460078       0.000000       0.000000       0.000000   25129.606410  -31823.464293    1103.397804 
  970000     291.236213   -4678.826822   -5547.814774       0.000000       0.000000       0.000000   25145.697717  -31823.111982    1129.599491 
  980000     300.620121   -4611.834541   -5508.822110       0.000000       0.000000       0.000000   25245.861894  -31821.778820    1067.094817 
  990000     300.279298   -4648.592534   -5544.563158       0.000000       0.000000       0.000000   25218.827602  -31822.495750    1059.104990 
 1000000     309.103137   -4559.985447   -5482.284561       0.000000       0.000000       0.000000   25216.631622  -31816.483134    1117.566951 
 1000071     300.408550   -4557.914584   -5454.270871       0.000000       0.000000       0.000000   25276.736104  -31814.342440    1083.335466 
Loop time of 1965.83 on 8 procs for 1000000 steps with 1503 atoms

Performance: 43.951 ns/day, 0.546 hours/ns, 508.692 timesteps/s
99.2% CPU use with 8 MPI tasks x 1 OpenMP threads

MPI task timing breakdown:
Section |  min time  |  avg time  |  max time  |%varavg| %total
---------------------------------------------------------------
Pair    | 977.72     | 984.06     | 993.47     |  18.1 | 50.06
Bond    | 0.28792    | 0.31647    | 0.35655    |   4.5 |  0.02
Kspace  | 521.79     | 531.02     | 536.47     |  24.3 | 27.01
Neigh   | 70.372     | 70.394     | 70.428     |   0.2 |  3.58
Comm    | 91.32      | 93.482     | 96.332     |  13.9 |  4.76
Output  | 0.0041037  | 0.0047747  | 0.0092383  |   2.4 |  0.00
Modify  | 266.68     | 276.6      | 284.45     |  27.0 | 14.07
Other   |            | 9.937      |            |       |  0.51

Nlocal:    187.875 ave 198 max 175 min
Histogram: 2 0 0 1 0 0 1 1 2 1
Nghost:    4558.12 ave 4590 max 4507 min
Histogram: 1 0 0 0 0 3 0 2 1 1
Neighs:    66641.5 ave 70004 max 62303 min
Histogram: 2 1 0 0 0 0 1 0 2 2

Total # of neighbors = 533132
Ave neighs/atom = 354.712
Ave special neighs/atom = 2
Neighbor list builds = 43400
Dangerous builds = 0
PPPM initialization ...
  using 12-bit tables for long-range coulomb (src/kspace.cpp:332)
  G vector (1/distance) = 0.312764
  grid = 24 24 24
  stencil order = 5
  estimated absolute RMS force accuracy = 0.00188864
  estimated relative force accuracy = 5.68758e-06
  using double precision MKL FFT
  3d grid and FFT values/proc = 6859 1728
Neighbor list info ...
  update every 1 steps, delay 10 steps, check yes
  max neighbors/atom: 2000, page size: 100000
  master list distance cutoff = 12
  ghost atom cutoff = 12
  binsize = 6, bins = 5 5 5
  3 neighbor lists, perpetual/occasional/extra = 3 0 0
  (1) pair lj/cut/coul/long, perpetual, skip from (3)
      attributes: half, newton on
      pair build: skip
      stencil: none
      bin: none
  (2) pair lj/cut/coul/long/soft, perpetual, skip from (3)
      attributes: half, newton on
      pair build: skip
      stencil: none
      bin: none
  (3) neighbor class addition, perpetual
      attributes: half, newton on
      pair build: half/bin/newton
      stencil: half/bin/3d/newton
      bin: standard
Setting up Verlet run ...
  Unit style    : real
  Current step  : 0
  Time step     : 1
Per MPI rank memory allocation (min/avg/max) = 10.91 | 10.91 | 10.91 Mbytes
Step Temp TotEng PotEng E_bond E_angle E_dihed E_coul E_long E_vdwl 
       0     300.408550   -4557.899457   -5454.255743       0.000000       0.000000       0.000000   25040.733991  -31578.325200    1083.335466 
   10000     307.593178   -4648.984252   -5566.777964       0.000000       0.000000       0.000000   24884.642771  -31581.518720    1130.097985 
   20000     288.941798   -4668.730036   -5530.871933       0.000000       0.000000       0.000000   24968.252935  -31580.160746    1081.035879 
   30000     305.000467   -4590.104721   -5500.162328       0.000000       0.000000       0.000000   24948.577928  -31581.103921    1132.363665 
   40000     284.715208   -4719.847549   -5569.378183       0.000000       0.000000       0.000000   24923.097576  -31586.203922    1093.728163 
   50000     306.642751   -4614.952607   -5529.910445       0.000000       0.000000       0.000000   24970.460133  -31584.547359    1084.176780 
   60000     305.003435   -4604.193110   -5514.259573       0.000000       0.000000       0.000000   24961.920417  -31583.703922    1107.523932 
   70000     315.044948   -4541.669217   -5481.697452       0.000000       0.000000       0.000000   24997.544356  -31581.773636    1102.531827 
   80000     304.559726   -4680.544830   -5589.287356       0.000000       0.000000       0.000000   24892.012953  -31586.629677    1105.329368 
   90000     311.123370   -4546.452651   -5474.779719       0.000000       0.000000       0.000000   25050.510270  -31582.961998    1057.672009 
  100000     303.412344   -4582.414511   -5487.733489       0.000000       0.000000       0.000000   25086.054159  -31580.123510    1006.335862 
  110000     303.040508   -4621.768869   -5525.978367       0.000000       0.000000       0.000000   24904.231955  -31585.923089    1155.712767 
  120000     294.406235   -4690.882249   -5569.328882       0.000000       0.000000       0.000000   24909.413629  -31585.642612    1106.900101 
  130000     286.554513   -4633.637851   -5488.656589       0.000000       0.000000       0.000000   25002.468066  -31582.802466    1091.677811 
  140000     296.587979   -4685.088813   -5570.045313       0.000000       0.000000       0.000000   24908.884364  -31587.478653    1108.548976 
  150000     304.762307   -4558.228023   -5467.575008       0.000000       0.000000       0.000000   25013.934737  -31584.162697    1102.652951 
  160000     293.803576   -4738.539318   -5615.187742       0.000000       0.000000       0.000000   24788.448061  -31588.027729    1184.391925 
  170000     293.667114   -4681.121982   -5557.363231       0.000000       0.000000       0.000000   24871.493187  -31581.058279    1152.201860 
  180000     281.095846   -4590.930784   -5429.661999       0.000000       0.000000       0.000000   25115.485645  -31580.793092    1035.645448 
  190000     300.156872   -4596.673577   -5492.278909       0.000000       0.000000       0.000000   24974.812848  -31582.519789    1115.428032 
  200000     294.185569   -4609.251440   -5487.039652       0.000000       0.000000       0.000000   24980.973026  -31582.564066    1114.551388 
  210000     296.427418   -4606.236039   -5490.713461       0.000000       0.000000       0.000000   24989.837331  -31577.980068    1097.429276 
  220000     301.873215   -4556.751872   -5457.478412       0.000000       0.000000       0.000000   25078.755487  -31581.016154    1044.782256 
  230000     299.672402   -4624.869972   -5519.029746       0.000000       0.000000       0.000000   24978.899552  -31582.942722    1085.013424 
  240000     299.297380   -4604.231324   -5497.272112       0.000000       0.000000       0.000000   25022.220365  -31579.479972    1059.987495 
  250000     296.422966   -4660.359808   -5544.823943       0.000000       0.000000       0.000000   24937.266606  -31585.728660    1103.638111 
  260000     298.841539   -4640.538557   -5532.219208       0.000000       0.000000       0.000000   24947.821021  -31583.693855    1103.653625 
  270000     289.206323   -4694.692278   -5557.623461       0.000000       0.000000       0.000000   24979.713891  -31581.690233    1044.352880 
  280000     288.446481   -4713.568801   -5574.232774       0.000000       0.000000       0.000000   24905.753404  -31584.634860    1104.648683 
  290000     294.036525   -4662.140616   -5539.484111       0.000000       0.000000       0.000000   24923.779449  -31581.569340    1118.305780 
  300000     299.241735   -4604.030838   -5496.905593       0.000000       0.000000       0.000000   25034.092998  -31578.802259    1047.803668 
  310000     288.113803   -4643.311021   -5502.982355       0.000000       0.000000       0.000000   24974.047635  -31585.983996    1108.954007 
  320000     307.640255   -4605.156143   -5523.090325       0.000000       0.000000       0.000000   24970.324043  -31581.615235    1088.200868 
  330000     301.017677   -4637.464615   -5535.638410       0.000000       0.000000       0.000000   24929.468194  -31581.993282    1116.886678 
  340000     288.730310   -4667.906431   -5529.417292       0.000000       0.000000       0.000000   24943.592862  -31580.169438    1107.159284 
  350000     308.912952   -4571.711965   -5493.443608       0.000000       0.000000       0.000000   25006.619008  -31587.134850    1087.072235 
  360000     291.665136   -4624.979196   -5495.246963       0.000000       0.000000       0.000000   24936.128421  -31581.369078    1149.993693 
  370000     300.374063   -4599.286928   -5495.540312       0.000000       0.000000       0.000000   24941.202457  -31583.795003    1147.052234 
  380000     313.070659   -4576.990704   -5511.128074       0.000000       0.000000       0.000000   24944.369305  -31585.971961    1130.474582 
  390000     300.561326   -4701.027472   -5597.839609       0.000000       0.000000       0.000000   24909.841522  -31585.446245    1077.765114 
  400000     304.196911   -4607.115931   -5514.775893       0.000000       0.000000       0.000000   25026.177691  -31585.913095    1044.959511 
  410000     304.142972   -4609.205171   -5516.704190       0.000000       0.000000       0.000000   24895.524718  -31577.533128    1165.304220 
  420000     310.563335   -4567.204503   -5493.860543       0.000000       0.000000       0.000000   24971.689079  -31583.261330    1117.711708 
  430000     293.648424   -4672.887007   -5549.072490       0.000000       0.000000       0.000000   24948.031354  -31588.935845    1091.832001 
  440000     300.504179   -4580.806908   -5477.448530       0.000000       0.000000       0.000000   24998.028270  -31578.891525    1103.414726 
  450000     307.841145   -4580.229604   -5498.763198       0.000000       0.000000       0.000000   24995.199644  -31578.562917    1084.600075 
  460000     297.169860   -4676.572464   -5563.265177       0.000000       0.000000       0.000000   24885.717205  -31584.099768    1135.117387 
  470000     303.214001   -4662.554289   -5567.281453       0.000000       0.000000       0.000000   24927.311616  -31584.844727    1090.251659 
  480000     291.893034   -4656.020240   -5526.968007       0.000000       0.000000       0.000000   24995.361589  -31586.674688    1064.345092 
  490000     306.742586   -4586.972780   -5502.228505       0.000000       0.000000       0.000000   25022.000718  -31579.143268    1054.914046 
  500000     291.837222   -4740.789569   -5611.570806       0.000000       0.000000       0.000000   24834.268216  -31585.982508    1140.143487 
  510000     304.694721   -4600.831248   -5509.976571       0.000000       0.000000       0.000000   24926.298393  -31578.803479    1142.528515 
  520000     308.822209   -4622.120404   -5543.581289       0.000000       0.000000       0.000000   24920.206615  -31585.517291    1121.729387 
  530000     307.251398   -4577.011216   -5493.785129       0.000000       0.000000       0.000000   25062.125293  -31584.292402    1028.381980 
  540000     284.463565   -4660.146425   -5508.926212       0.000000       0.000000       0.000000   25019.399992  -31582.476801    1054.150598 
  550000     312.886227   -4543.176246   -5476.763312       0.000000       0.000000       0.000000   25025.259924  -31580.519246    1078.496010 
  560000     292.513508   -4650.171551   -5522.970684       0.000000       0.000000       0.000000   24977.108622  -31578.185948    1078.106642 
  570000     310.271468   -4589.953435   -5515.738607       0.000000       0.000000       0.000000   25006.000190  -31585.329431    1063.590634 
  580000     303.224346   -4555.723162   -5460.481194       0.000000       0.000000       0.000000   25031.491019  -31581.001755    1089.029542 
  590000     298.939517   -4646.427093   -5538.400092       0.000000       0.000000       0.000000   24960.911108  -31582.834906    1083.523705 
  600000     301.160445   -4664.180383   -5562.780166       0.000000       0.000000       0.000000   24873.753327  -31585.137407    1148.603914 
  610000     307.363523   -4623.991705   -5541.100175       0.000000       0.000000       0.000000   25007.120760  -31585.679740    1037.458805 
  620000     299.080682   -4647.253355   -5539.647559       0.000000       0.000000       0.000000   25009.029355  -31581.234859    1032.557945 
  630000     303.597366   -4562.063121   -5467.934166       0.000000       0.000000       0.000000   25030.835704  -31582.736103    1083.966233 
  640000     296.280817   -4662.241854   -5546.281847       0.000000       0.000000       0.000000   25012.493241  -31585.744866    1026.969778 
  650000     298.534298   -4684.273299   -5575.037208       0.000000       0.000000       0.000000   24906.815313  -31584.564724    1102.712203 
  660000     299.150387   -4614.183644   -5506.785835       0.000000       0.000000       0.000000   24970.549916  -31585.791112    1108.455360 
  670000     295.362815   -4699.686955   -5580.987824       0.000000       0.000000       0.000000   24891.804909  -31583.547694    1110.754962 
  680000     298.163067   -4667.992942   -5557.649177       0.000000       0.000000       0.000000   24870.014966  -31585.136918    1157.472774 
  690000     308.137848   -4591.834929   -5511.253824       0.000000       0.000000       0.000000   25011.538784  -31587.603194    1064.810586 
  700000     308.188085   -4720.700362   -5640.269152       0.000000       0.000000       0.000000   24852.690728  -31586.762400    1093.802520 
  710000     310.914031   -4632.620771   -5560.323216       0.000000       0.000000       0.000000   24875.245078  -31580.466252    1144.897957 
  720000     290.996372   -4686.563476   -5554.835790       0.000000       0.000000       0.000000   24988.388363  -31584.091364    1040.867211 
  730000     301.019478   -4645.703523   -5543.882691       0.000000       0.000000       0.000000   24952.245438  -31583.183124    1087.054994 
  740000     295.046606   -4655.251134   -5535.608501       0.000000       0.000000       0.000000   24903.457695  -31581.972596    1142.906400 
  750000     299.568309   -4562.410242   -5456.259425       0.000000       0.000000       0.000000   25093.995608  -31584.237566    1033.982533 
  760000     303.510861   -4653.620670   -5559.233603       0.000000       0.000000       0.000000   24891.910394  -31583.700790    1132.556793 
  770000     297.521418   -4613.676032   -5501.417719       0.000000       0.000000       0.000000   24999.851428  -31586.535972    1085.266825 
  780000     291.537480   -4601.438659   -5471.325528       0.000000       0.000000       0.000000   25048.661863  -31579.177157    1059.189766 
  790000     296.638397   -4631.214497   -5516.321436       0.000000       0.000000       0.000000   24925.595896  -31583.129336    1141.212003 
  800000     305.126923   -4583.554687   -5493.989610       0.000000       0.000000       0.000000   25060.198228  -31584.038330    1029.850493 
  810000     299.297627   -4611.603030   -5504.644553       0.000000       0.000000       0.000000   24985.599149  -31584.737401    1094.493698 
  820000     288.437777   -4634.446285   -5495.084289       0.000000       0.000000       0.000000   25011.661482  -31585.602693    1078.856922 
  830000     285.190782   -4691.555265   -5542.504913       0.000000       0.000000       0.000000   24940.924100  -31579.628882    1096.199870 
  840000     302.194798   -4623.131076   -5524.817151       0.000000       0.000000       0.000000   24932.371601  -31579.269271    1122.080518 
  850000     292.624280   -4718.831055   -5591.960708       0.000000       0.000000       0.000000   24903.837887  -31584.549191    1088.750596 
  860000     306.566985   -4599.434846   -5514.166615       0.000000       0.000000       0.000000   24998.807321  -31583.672306    1070.698371 
  870000     291.385825   -4668.337168   -5537.771529       0.000000       0.000000       0.000000   24963.731567  -31586.455824    1084.952728 
  880000     302.406888   -4584.571698   -5486.890606       0.000000       0.000000       0.000000   25011.208993  -31582.269700    1084.170101 
  890000     285.329511   -4597.956034   -5449.319620       0.000000       0.000000       0.000000   25119.325145  -31581.781890    1013.137125 
  900000     304.348759   -4610.044468   -5518.157513       0.000000       0.000000       0.000000   24923.610593  -31584.121099    1142.352992 
  910000     302.876309   -4589.896029   -5493.615590       0.000000       0.000000       0.000000   25043.039448  -31584.630085    1047.975047 
  920000     294.481022   -4655.663116   -5534.332899       0.000000       0.000000       0.000000   24956.912136  -31583.524391    1092.279356 
  930000     293.582017   -4649.224196   -5525.211535       0.000000       0.000000       0.000000   24901.216040  -31583.045319    1156.617745 
  940000     306.174820   -4639.212800   -5552.774428       0.000000       0.000000       0.000000   24921.733338  -31587.552583    1113.044817 
  950000     295.892821   -4667.328115   -5550.210409       0.000000       0.000000       0.000000   24894.495148  -31582.858042    1138.152485 
  960000     301.381330   -4611.387334   -5510.646191       0.000000       0.000000       0.000000   24978.507747  -31585.059942    1095.906005 
  970000     294.862190   -4618.457689   -5498.264795       0.000000       0.000000       0.000000   25037.369472  -31582.561854    1046.927586 
  980000     304.949248   -4607.436445   -5517.341225       0.000000       0.000000       0.000000   24934.592626  -31585.710345    1133.776494 
  990000     302.770249   -4635.854122   -5539.257222       0.000000       0.000000       0.000000   24911.985971  -31582.465881    1131.222688 
 1000000     313.592479   -4650.260755   -5585.955127       0.000000       0.000000       0.000000   24863.124400  -31582.360956    1133.281429 
 1010000     308.967298   -4601.090547   -5522.984348       0.000000       0.000000       0.000000   24953.261668  -31586.199037    1109.953021 
 1020000     289.418353   -4674.846651   -5538.410488       0.000000       0.000000       0.000000   24956.677629  -31584.860909    1089.772792 
 1030000     307.489473   -4610.069665   -5527.553943       0.000000       0.000000       0.000000   24936.415297  -31589.287344    1125.318104 
 1040000     289.078044   -4670.095883   -5532.644308       0.000000       0.000000       0.000000   24923.472294  -31587.622637    1131.506035 
 1050000     289.873610   -4717.747180   -5582.669408       0.000000       0.000000       0.000000   24868.904175  -31585.145223    1133.571641 
 1060000     309.175625   -4589.421532   -5511.936937       0.000000       0.000000       0.000000   25075.497395  -31583.405870     995.971538 
 1070000     298.508264   -4604.709397   -5495.395628       0.000000       0.000000       0.000000   25012.703530  -31582.125746    1074.026589 
 1080000     305.592047   -4524.878925   -5436.701681       0.000000       0.000000       0.000000   25140.470654  -31577.383444    1000.211109 
 1090000     302.590555   -4590.681625   -5493.548558       0.000000       0.000000       0.000000   25038.060747  -31584.797302    1053.187996 
 1100000     311.727111   -4597.397279   -5527.525784       0.000000       0.000000       0.000000   24994.951920  -31580.985431    1058.507727 
 1110000     293.561387   -4701.644821   -5577.570604       0.000000       0.000000       0.000000   24882.118405  -31584.996993    1125.307984 
 1120000     310.588831   -4590.888631   -5517.620746       0.000000       0.000000       0.000000   25009.151090  -31586.022310    1059.250474 
 1130000     286.639556   -4663.232391   -5518.504878       0.000000       0.000000       0.000000   24964.131376  -31583.696426    1101.060172 
 1140000     307.515280   -4637.863657   -5555.424940       0.000000       0.000000       0.000000   24940.086017  -31582.131921    1086.620964 
 1150000     296.511355   -4689.290768   -5574.018639       0.000000       0.000000       0.000000   24921.016863  -31583.153148    1088.117646 
 1160000     298.984759   -4604.318141   -5496.426130       0.000000       0.000000       0.000000   25019.911880  -31581.653334    1065.315324 
 1170000     288.553560   -4685.265254   -5546.248730       0.000000       0.000000       0.000000   24925.227232  -31582.901757    1111.425795 
 1180000     291.899924   -4638.249588   -5509.217915       0.000000       0.000000       0.000000   24892.922138  -31584.981178    1182.841125 
 1190000     306.369348   -4567.953923   -5482.095983       0.000000       0.000000       0.000000   25067.315513  -31585.839844    1036.428348 
 1200000     283.940132   -4680.741978   -5527.959949       0.000000       0.000000       0.000000   24973.378794  -31581.049115    1079.710372 
 1210000     288.925542   -4727.667180   -5589.760573       0.000000       0.000000       0.000000   24937.031415  -31583.642850    1056.850862 
 1220000     292.987298   -4684.083298   -5558.296119       0.000000       0.000000       0.000000   24879.290620  -31584.159784    1146.573044 
 1230000     313.166991   -4650.188453   -5584.613258       0.000000       0.000000       0.000000   24847.238946  -31578.145216    1146.293012 
 1240000     288.603041   -4733.297370   -5594.428486       0.000000       0.000000       0.000000   24860.402095  -31586.010271    1131.179691 
 1250000     289.944304   -4715.225609   -5580.358772       0.000000       0.000000       0.000000   24827.220718  -31583.398491    1175.819001 
 1260000     293.549593   -4611.611713   -5487.502306       0.000000       0.000000       0.000000   25019.771498  -31585.417679    1078.143875 
 1270000     310.880725   -4574.548199   -5502.151263       0.000000       0.000000       0.000000   24947.192750  -31579.319508    1129.975494 
 1280000     298.168945   -4623.632412   -5513.306186       0.000000       0.000000       0.000000   24998.474631  -31581.270229    1069.489412 
 1290000     292.747017   -4628.331449   -5501.827325       0.000000       0.000000       0.000000   24916.375461  -31582.362185    1164.159400 
 1300000     302.779445   -4610.881439   -5514.311981       0.000000       0.000000       0.000000   24969.772956  -31578.511373    1094.426436 
 1310000     296.901110   -4649.007013   -5534.897833       0.000000       0.000000       0.000000   25008.916432  -31583.022380    1039.208116 
 1320000     298.023727   -4650.470147   -5539.710621       0.000000       0.000000       0.000000   24908.488263  -31579.235780    1131.036896 
 1330000     301.275222   -4624.361765   -5523.304020       0.000000       0.000000       0.000000   24963.030520  -31583.219304    1096.884764 
 1340000     300.305702   -4640.257871   -5536.307281       0.000000       0.000000       0.000000   24919.820475  -31583.473142    1127.345387 
 1350000     287.617012   -4696.313037   -5554.502048       0.000000       0.000000       0.000000   24888.306195  -31583.900961    1141.092719 
 1360000     301.437054   -4572.040318   -5471.465444       0.000000       0.000000       0.000000   25086.170642  -31582.665300    1025.029215 
 1370000     286.535338   -4714.179109   -5569.140632       0.000000       0.000000       0.000000   24914.406185  -31582.693764    1099.146947 
 1380000     284.877461   -4690.206926   -5540.221689       0.000000       0.000000       0.000000   24884.903377  -31584.148749    1159.023682 
 1390000     302.196657   -4674.818813   -5576.510435       0.000000       0.000000       0.000000   24869.370640  -31584.307334    1138.426258 
 1400000     300.275142   -4655.818199   -5551.776425       0.000000       0.000000       0.000000   24891.777499  -31582.113930    1138.560006 
 1410000     296.552832   -4684.734440   -5569.586071       0.000000       0.000000       0.000000   24939.063822  -31584.643245    1075.993352 
 1420000     314.743996   -4640.700120   -5579.830378       0.000000       0.000000       0.000000   24931.281899  -31584.806343    1073.694066 
 1430000     310.694574   -4616.574304   -5543.621934       0.000000       0.000000       0.000000   24896.915727  -31581.517856    1140.980195 
 1440000     296.314490   -4641.027534   -5525.167999       0.000000       0.000000       0.000000   24882.017237  -31581.863525    1174.678288 
 1450000     324.194093   -4525.443311   -5492.770684       0.000000       0.000000       0.000000   25040.093318  -31583.219370    1050.355368 
 1460000     321.167602   -4582.710492   -5541.007448       0.000000       0.000000       0.000000   24996.882445  -31581.802686    1043.912794 
 1470000     290.903135   -4626.625164   -5494.619278       0.000000       0.000000       0.000000   25020.973026  -31581.069464    1065.477159 
 1480000     304.983755   -4606.699916   -5516.707656       0.000000       0.000000       0.000000   24999.228001  -31586.684058    1070.748401 
 1490000     306.733622   -4611.380286   -5526.609263       0.000000       0.000000       0.000000   24922.613141  -31581.878895    1132.656490 
 1500000     305.938880   -4685.474582   -5598.332216       0.000000       0.000000       0.000000   24804.548637  -31587.089192    1184.208340 
 1510000     298.611447   -4590.262504   -5481.256611       0.000000       0.000000       0.000000   25019.887948  -31579.852913    1078.708353 
 1520000     296.266457   -4574.716872   -5458.714019       0.000000       0.000000       0.000000   25048.385863  -31586.126020    1079.026138 
 1530000     296.446880   -4625.643222   -5510.178712       0.000000       0.000000       0.000000   25004.183010  -31588.617557    1074.255835 
 1540000     290.064154   -4631.936757   -5497.427528       0.000000       0.000000       0.000000   25026.518584  -31582.985113    1059.039000 
 1550000     304.212793   -4631.394184   -5539.101537       0.000000       0.000000       0.000000   24940.452686  -31586.215680    1106.661457 
 1560000     305.080569   -4670.356900   -5580.653514       0.000000       0.000000       0.000000   24920.538483  -31582.215000    1081.023003 
 1570000     289.024089   -4664.812478   -5527.199911       0.000000       0.000000       0.000000   24950.670586  -31581.679616    1103.809119 
 1580000     303.027832   -4650.040656   -5554.212331       0.000000       0.000000       0.000000   24923.044013  -31580.885211    1103.628867 
 1590000     318.162858   -4549.064349   -5498.395777       0.000000       0.000000       0.000000   24978.044634  -31580.292010    1103.851600 
 1600000     290.800787   -4639.153535   -5506.842265       0.000000       0.000000       0.000000   25041.203769  -31577.640358    1029.594324 
 1610000     301.791024   -4596.359929   -5496.841228       0.000000       0.000000       0.000000   25007.284270  -31582.455068    1078.329570 
 1620000     287.712025   -4690.878131   -5549.350641       0.000000       0.000000       0.000000   24906.595196  -31584.550278    1128.604441 
 1630000     279.587296   -4672.418588   -5506.648605       0.000000       0.000000       0.000000   25008.764306  -31582.781845    1067.368934 
 1640000     290.945681   -4709.647549   -5577.768614       0.000000       0.000000       0.000000   24993.727721  -31587.131286    1015.634952 
 1650000     291.741939   -4647.609916   -5518.106846       0.000000       0.000000       0.000000   24977.524528  -31582.896111    1087.264737 
 1660000     298.566666   -4607.577597   -5498.438086       0.000000       0.000000       0.000000   25037.627538  -31581.129558    1045.063933 
 1670000     317.036613   -4571.265860   -5517.236808       0.000000       0.000000       0.000000   24973.509400  -31581.498773    1090.752565 
 1680000     303.042861   -4601.758284   -5505.974803       0.000000       0.000000       0.000000   25019.380286  -31580.621725    1055.266636 
 1690000     304.561166   -4666.479322   -5575.226145       0.000000       0.000000       0.000000   24959.592493  -31583.105097    1048.286460 
 1700000     312.523897   -4606.616412   -5539.122360       0.000000       0.000000       0.000000   24938.172445  -31584.444102    1107.149298 
 1710000     297.961547   -4652.968651   -5542.023591       0.000000       0.000000       0.000000   24971.885247  -31581.571234    1067.662396 
 1720000     308.412353   -4624.640459   -5544.878419       0.000000       0.000000       0.000000   24947.041291  -31588.030327    1096.110617 
 1730000     294.674183   -4609.223782   -5488.469916       0.000000       0.000000       0.000000   24971.622390  -31582.679801    1122.587495 
 1740000     303.601987   -4676.126773   -5582.011606       0.000000       0.000000       0.000000   24860.649392  -31581.201396    1138.540398 
 1750000     297.128832   -4704.796192   -5591.366485       0.000000       0.000000       0.000000   24910.460440  -31585.493236    1083.666311 
 1760000     278.175433   -4667.732249   -5497.749564       0.000000       0.000000       0.000000   25021.868096  -31584.856476    1065.238817 
 1770000     292.506109   -4652.075167   -5524.852220       0.000000       0.000000       0.000000   24976.611972  -31584.502452    1083.038260 
 1780000     293.713403   -4654.361570   -5530.740937       0.000000       0.000000       0.000000   24885.506530  -31587.978081    1171.730615 
 1790000     310.520136   -4572.963729   -5499.490873       0.000000       0.000000       0.000000   25012.136531  -31585.260880    1073.633476 
 1800000     291.199502   -4750.280514   -5619.158925       0.000000       0.000000       0.000000   24850.719373  -31586.087886    1116.209588 
 1810000     296.376535   -4623.505203   -5507.830799       0.000000       0.000000       0.000000   24967.483622  -31586.055634    1110.741213 
 1820000     305.682998   -4692.217906   -5604.312041       0.000000       0.000000       0.000000   24880.248433  -31586.798048    1102.237574 
 1830000     307.835604   -4601.778849   -5520.295911       0.000000       0.000000       0.000000   24943.933834  -31581.256572    1117.026826 
 1840000     299.930944   -4605.524911   -5500.456119       0.000000       0.000000       0.000000   25017.332067  -31585.313259    1067.525073 
 1850000     305.821658   -4622.706489   -5535.214358       0.000000       0.000000       0.000000   24958.968442  -31585.027158    1090.844358 
 1860000     281.330765   -4678.289405   -5517.721572       0.000000       0.000000       0.000000   24972.404829  -31585.965396    1095.838995 
 1870000     286.724674   -4697.629182   -5553.155644       0.000000       0.000000       0.000000   24966.741421  -31584.708854    1064.811789 
 1880000     290.379685   -4613.110169   -5479.542418       0.000000       0.000000       0.000000   25030.578734  -31581.677793    1071.556642 
 1890000     302.593234   -4632.673636   -5535.548562       0.000000       0.000000       0.000000   24919.158799  -31582.525758    1127.818397 
 1900000     300.083551   -4658.633410   -5554.019968       0.000000       0.000000       0.000000   24962.459774  -31587.559824    1071.080082 
 1910000     293.027675   -4661.137416   -5535.470715       0.000000       0.000000       0.000000   24959.431348  -31583.880949    1088.978885 
 1920000     294.417730   -4607.576206   -5486.057137       0.000000       0.000000       0.000000   25011.783528  -31585.327574    1087.486909 
 1930000     299.421606   -4635.786940   -5529.198391       0.000000       0.000000       0.000000   24979.444370  -31581.187333    1072.544572 
 1940000     308.094447   -4610.288681   -5529.578076       0.000000       0.000000       0.000000   24959.733495  -31583.338308    1094.026737 
 1950000     300.570831   -4702.750020   -5599.590519       0.000000       0.000000       0.000000   24873.767402  -31578.297308    1104.939387 
 1960000     296.716218   -4630.428552   -5515.767691       0.000000       0.000000       0.000000   25006.775049  -31578.805857    1056.263117 
 1970000     300.836080   -4615.113076   -5512.745023       0.000000       0.000000       0.000000   24972.140655  -31579.603118    1094.717440 
 1980000     297.338611   -4709.007119   -5596.203349       0.000000       0.000000       0.000000   24900.478941  -31587.928774    1091.246484 
 1990000     293.710830   -4620.825697   -5497.197387       0.000000       0.000000       0.000000   25025.970526  -31580.934408    1057.766494 
 2000000     289.391999   -4710.561872   -5574.047072       0.000000       0.000000       0.000000   24869.492121  -31584.216544    1140.677352 
 2010000     299.352649   -4674.663968   -5567.869665       0.000000       0.000000       0.000000   24849.125818  -31586.869215    1169.873732 
 2020000     298.643867   -4606.155465   -5497.246304       0.000000       0.000000       0.000000   24994.167884  -31584.025244    1092.611056 
 2030000     309.592230   -4583.776079   -5507.534547       0.000000       0.000000       0.000000   25014.381383  -31581.859178    1059.943248 
 2040000     308.863085   -4614.836575   -5536.419424       0.000000       0.000000       0.000000   24950.120005  -31583.389114    1096.849686 
 2050000     289.564533   -4640.273681   -5504.273689       0.000000       0.000000       0.000000   25036.492342  -31584.002599    1043.236567 
 2060000     291.164689   -4614.421665   -5483.196202       0.000000       0.000000       0.000000   25014.507720  -31579.683204    1081.979282 
 2070000     308.009587   -4584.598286   -5503.634477       0.000000       0.000000       0.000000   24948.367334  -31583.492062    1131.490251 
 2080000     315.185273   -4589.230816   -5529.677753       0.000000       0.000000       0.000000   24981.007257  -31584.647347    1073.962336 
 2090000     289.811085   -4653.039629   -5517.775295       0.000000       0.000000       0.000000   25045.116701  -31583.667924    1020.775928 
 2100000     299.321255   -4600.280163   -5493.392189       0.000000       0.000000       0.000000   24989.743520  -31581.351240    1098.215531 
 2110000     303.169896   -4575.172252   -5479.767816       0.000000       0.000000       0.000000   24999.636932  -31581.596531    1102.191783 
 2120000     311.413924   -4558.974195   -5488.168214       0.000000       0.000000       0.000000   25077.537673  -31583.621042    1017.915156 
 2130000     301.002198   -4602.864532   -5500.992139       0.000000       0.000000       0.000000   24977.870699  -31581.754615    1102.891778 
 2140000     302.939506   -4604.302068   -5508.210198       0.000000       0.000000       0.000000   25034.332953  -31582.854091    1040.310940 
 2150000     304.800836   -4628.336891   -5537.798839       0.000000       0.000000       0.000000   24960.927946  -31586.471485    1087.744700 
 2160000     299.384500   -4616.747448   -5510.048183       0.000000       0.000000       0.000000   24971.599651  -31582.056176    1100.408342 
 2170000     308.283207   -4623.681872   -5543.534486       0.000000       0.000000       0.000000   24988.791103  -31585.591624    1053.266035 
 2180000     293.915361   -4636.167127   -5513.149096       0.000000       0.000000       0.000000   25011.540286  -31584.476503    1059.787121 
 2190000     298.134881   -4648.510350   -5538.082483       0.000000       0.000000       0.000000   24972.281671  -31583.759950    1073.395796 
 2200000     294.763578   -4661.292969   -5540.805841       0.000000       0.000000       0.000000   24953.371876  -31587.266566    1093.088850 
 2210000     298.097657   -4643.040648   -5532.501713       0.000000       0.000000       0.000000   24918.027324  -31580.946972    1130.417934 
 2220000     305.570910   -4627.912573   -5539.672262       0.000000       0.000000       0.000000   24915.541103  -31582.805437    1127.592073 
 2230000     297.336043   -4664.548994   -5551.737562       0.000000       0.000000       0.000000   24988.146214  -31586.767106    1046.883331 
 2240000     290.279068   -4684.844994   -5550.977025       0.000000       0.000000       0.000000   24930.405784  -31584.277456    1102.894647 
 2250000     300.340850   -4654.576436   -5550.730719       0.000000       0.000000       0.000000   24919.687914  -31586.439927    1116.021294 
 2260000     299.088564   -4633.602652   -5526.020377       0.000000       0.000000       0.000000   24916.260569  -31585.540383    1143.259437 
 2270000     297.974063   -4632.159173   -5521.251460       0.000000       0.000000       0.000000   25026.650441  -31587.114149    1039.212248 
 2280000     298.960644   -4635.555715   -5527.591752       0.000000       0.000000       0.000000   24901.718453  -31584.748874    1155.438669 
 2290000     323.638551   -4565.662993   -5531.332742       0.000000       0.000000       0.000000   24996.456958  -31583.068066    1055.278366 
 2300000     298.373885   -4636.459048   -5526.744318       0.000000       0.000000       0.000000   24978.004267  -31579.975354    1075.226769 
 2310000     294.499338   -4675.280490   -5554.004925       0.000000       0.000000       0.000000   24889.136028  -31584.918573    1141.777620 
 2320000     301.413381   -4655.032733   -5554.387225       0.000000       0.000000       0.000000   24961.683065  -31583.227771    1067.157481 
 2330000     308.066869   -4586.001127   -5505.208235       0.000000       0.000000       0.000000   24993.852376  -31583.210619    1084.150008 
 2340000     305.035535   -4653.877984   -5564.040226       0.000000       0.000000       0.000000   24953.303493  -31585.993296    1068.649576 
 2350000     292.741256   -4687.782052   -5561.260735       0.000000       0.000000       0.000000   24873.975044  -31581.678396    1146.442617 
 2360000     294.348905   -4631.255835   -5509.531407       0.000000       0.000000       0.000000   25007.663585  -31578.114669    1060.919677 
 2370000     301.418619   -4615.881563   -5515.251683       0.000000       0.000000       0.000000   24951.093728  -31583.043278    1116.697867 
 2380000     293.151664   -4630.273801   -5504.977055       0.000000       0.000000       0.000000   25019.272533  -31587.310799    1063.061211 
 2390000     293.880167   -4582.535475   -5459.412431       0.000000       0.000000       0.000000   25042.459855  -31579.280479    1077.408193 
 2400000     302.833652   -4618.022919   -5521.615201       0.000000       0.000000       0.000000   24977.483057  -31583.975399    1084.877141 
 2410000     302.542531   -4668.882909   -5571.606547       0.000000       0.000000       0.000000   24885.071229  -31584.388681    1127.710905 
 2420000     311.646573   -4584.225297   -5514.113493       0.000000       0.000000       0.000000   24953.211739  -31582.810996    1115.485764 
 2430000     292.183833   -4607.169921   -5478.985373       0.000000       0.000000       0.000000   24992.867403  -31584.340162    1112.487386 
 2440000     309.080225   -4565.739135   -5487.969886       0.000000       0.000000       0.000000   25020.278034  -31582.290854    1074.042934 
 2450000     299.983717   -4579.658950   -5474.747623       0.000000       0.000000       0.000000   24999.730834  -31583.723583    1109.245126 
 2460000     289.438183   -4712.259204   -5575.882207       0.000000       0.000000       0.000000   24878.483565  -31587.199465    1132.833692 
 2470000     300.979710   -4620.851081   -5518.911590       0.000000       0.000000       0.000000   25000.539318  -31584.907597    1065.456689 
 2480000     292.062767   -4586.607501   -5458.061716       0.000000       0.000000       0.000000   25115.342169  -31582.125137    1008.721252 
 2490000     290.976951   -4655.274040   -5523.488407       0.000000       0.000000       0.000000   24943.283946  -31585.498063    1118.725710 
 2500000     300.326139   -4600.186612   -5496.297001       0.000000       0.000000       0.000000   24963.070962  -31584.114144    1124.746180 
 2510000     291.993273   -4660.140532   -5531.387392       0.000000       0.000000       0.000000   24996.332369  -31586.632958    1058.913197 
 2520000     302.458465   -4594.258312   -5496.731116       0.000000       0.000000       0.000000   25080.941300  -31583.840228    1006.167812 
 2530000     294.096666   -4599.196470   -5476.719413       0.000000       0.000000       0.000000   25095.744801  -31583.246690    1010.782475 
 2540000     298.062099   -4630.044249   -5519.399216       0.000000       0.000000       0.000000   24953.769954  -31581.358850    1108.189680 
 2550000     302.965450   -4643.679970   -5547.665510       0.000000       0.000000       0.000000   24933.556081  -31584.591761    1103.370171 
 2560000     300.399381   -4715.697785   -5612.026711       0.000000       0.000000       0.000000   24832.214583  -31587.253621    1143.012326 
 2570000     309.499460   -4608.148918   -5531.630578       0.000000       0.000000       0.000000   25021.841430  -31581.575769    1028.103761 
 2580000     297.396225   -4635.066159   -5522.434296       0.000000       0.000000       0.000000   24966.571068  -31586.175363    1097.169999 
 2590000     298.411834   -4689.262322   -5579.660824       0.000000       0.000000       0.000000   24895.946258  -31583.866269    1108.259187 
 2600000     288.618080   -4674.523680   -5535.699669       0.000000       0.000000       0.000000   24946.897917  -31583.503099    1100.905513 
 2610000     324.975327   -4510.740964   -5480.399376       0.000000       0.000000       0.000000   24962.462219  -31585.937691    1143.076097 
 2620000     301.064523   -4610.738178   -5509.051750       0.000000       0.000000       0.000000   24996.629168  -31584.983769    1079.302852 
 2630000     297.022485   -4591.810964   -5478.063939       0.000000       0.000000       0.000000   25058.753296  -31581.882937    1045.065702 
 2640000     302.159958   -4652.991032   -5554.573153       0.000000       0.000000       0.000000   24954.950867  -31582.717408    1073.193389 
 2650000     291.624340   -4647.773053   -5517.919094       0.000000       0.000000       0.000000   24911.648218  -31580.659620    1151.092307 
 2660000     300.849526   -4538.811765   -5436.483831       0.000000       0.000000       0.000000   25089.961858  -31581.273585    1054.827896 
 2670000     296.821054   -4660.401089   -5546.053036       0.000000       0.000000       0.000000   24924.738597  -31584.450258    1113.658625 
 2680000     293.019073   -4637.184621   -5511.492252       0.000000       0.000000       0.000000   25022.863928  -31583.947465    1049.591284 
 2690000     296.971299   -4657.581473   -5543.681720       0.000000       0.000000       0.000000   24915.204194  -31579.898345    1121.012431 
 2700000     304.514231   -4636.854419   -5545.461199       0.000000       0.000000       0.000000   24910.511269  -31581.334973    1125.362505 
 2710000     306.645697   -4613.724440   -5528.691069       0.000000       0.000000       0.000000   24939.675788  -31580.915724    1112.548866 
 2720000     312.317817   -4545.748997   -5477.640046       0.000000       0.000000       0.000000   25083.753811  -31581.186871    1019.793014 
 2730000     295.143630   -4602.293928   -5482.940792       0.000000       0.000000       0.000000   25011.494881  -31580.649207    1086.213535 
 2740000     304.207515   -4575.425970   -5483.117573       0.000000       0.000000       0.000000   25053.791659  -31582.743599    1045.834367 
 2750000     298.096858   -4640.634282   -5530.092962       0.000000       0.000000       0.000000   24995.771338  -31584.317084    1058.452785 
 2760000     295.887456   -4626.594744   -5509.461031       0.000000       0.000000       0.000000   24989.484079  -31581.477855    1082.532745 
 2770000     294.795106   -4686.529072   -5566.136013       0.000000       0.000000       0.000000   24913.058697  -31585.456133    1106.261422 
 2780000     297.295254   -4658.960449   -5546.027312       0.000000       0.000000       0.000000   24896.340079  -31583.110121    1140.742730 
 2790000     289.558319   -4705.681243   -5569.662709       0.000000       0.000000       0.000000   24884.748135  -31586.945833    1132.534989 
 2800000     305.125499   -4574.048630   -5484.479305       0.000000       0.000000       0.000000   25063.605731  -31578.166107    1030.081071 
 2810000     300.084437   -4625.556791   -5520.945992       0.000000       0.000000       0.000000   24959.739628  -31582.873940    1102.188320 
 2820000     290.762677   -4622.904557   -5490.479575       0.000000       0.000000       0.000000   25034.360896  -31584.356180    1059.515709 
 2830000     301.707859   -4619.927811   -5520.160964       0.000000       0.000000       0.000000   24956.486357  -31582.820166    1106.172845 
 2840000     309.054986   -4636.459076   -5558.614518       0.000000       0.000000       0.000000   24907.993377  -31581.962862    1115.354967 
 2850000     306.703864   -4556.034684   -5471.174869       0.000000       0.000000       0.000000   25071.783981  -31580.420024    1037.461174 
 2860000     313.999702   -4595.011334   -5531.920775       0.000000       0.000000       0.000000   24954.690534  -31585.825019    1099.213710 
 2870000     297.954565   -4610.054302   -5499.088410       0.000000       0.000000       0.000000   25000.893646  -31581.732194    1081.750138 
 2880000     299.664125   -4644.118560   -5538.253637       0.000000       0.000000       0.000000   25003.554543  -31587.015483    1045.207303 
 2890000     304.193733   -4667.115742   -5574.766222       0.000000       0.000000       0.000000   24918.603318  -31584.930659    1091.561120 
 2900000     297.882058   -4613.189418   -5502.007179       0.000000       0.000000       0.000000   25010.592623  -31582.510581    1069.910779 
 2910000     299.746816   -4617.490187   -5511.871995       0.000000       0.000000       0.000000   25017.465046  -31582.501805    1053.164764 
 2920000     305.247353   -4665.777879   -5576.572139       0.000000       0.000000       0.000000   24834.766189  -31585.775023    1174.436694 
 2930000     300.824712   -4597.766452   -5495.364478       0.000000       0.000000       0.000000   24999.258404  -31580.312107    1085.689225 
 2940000     299.842579   -4652.230105   -5546.897651       0.000000       0.000000       0.000000   24889.111004  -31585.887407    1149.878753 
 2950000     289.748476   -4646.487465   -5511.036319       0.000000       0.000000       0.000000   25000.197759  -31582.168121    1070.934043 
 2960000     311.124739   -4575.363687   -5503.694839       0.000000       0.000000       0.000000   24955.204242  -31583.885521    1124.986441 
 2970000     294.640870   -4685.896170   -5565.042906       0.000000       0.000000       0.000000   24886.671896  -31585.293947    1133.579145 
 2980000     310.133658   -4634.374877   -5559.748851       0.000000       0.000000       0.000000   24879.173448  -31581.803287    1142.880988 
 2990000     298.543880   -4673.480288   -5564.272789       0.000000       0.000000       0.000000   24845.615226  -31582.473419    1172.585405 
 3000000     312.784008   -4594.126388   -5527.408453       0.000000       0.000000       0.000000   25014.596473  -31581.533830    1039.528904 
 3010000     293.277495   -4592.906301   -5467.985011       0.000000       0.000000       0.000000   25037.767667  -31582.503342    1076.750664 
 3020000     298.961702   -4687.564499   -5579.603692       0.000000       0.000000       0.000000   24912.060896  -31583.483789    1091.819201 
 3030000     290.447359   -4624.728175   -5491.362350       0.000000       0.000000       0.000000   25018.129648  -31583.488345    1073.996346 
 3040000     301.324578   -4571.088474   -5470.177996       0.000000       0.000000       0.000000   24985.893236  -31579.499094    1123.427863 
 3050000     303.692921   -4676.783053   -5582.939214       0.000000       0.000000       0.000000   24910.284433  -31584.189460    1090.965812 
 3060000     307.264244   -4657.341155   -5574.153397       0.000000       0.000000       0.000000   24947.821576  -31586.435757    1064.460784 
 3070000     312.384818   -4636.575497   -5568.666463       0.000000       0.000000       0.000000   24916.529973  -31582.473956    1097.277519 
 3080000     292.712086   -4632.649100   -5506.040747       0.000000       0.000000       0.000000   24979.246362  -31580.727538    1095.440428 
 3090000     297.124182   -4632.884302   -5519.440722       0.000000       0.000000       0.000000   24923.293285  -31583.458673    1140.724666 
 3100000     301.030945   -4598.133166   -5496.346548       0.000000       0.000000       0.000000   24989.656858  -31581.417115    1095.413709 
 3110000     286.994110   -4705.578807   -5561.909210       0.000000       0.000000       0.000000   24924.682370  -31587.174552    1100.582973 
 3120000     301.647754   -4666.840439   -5566.894251       0.000000       0.000000       0.000000   24889.336140  -31584.090236    1127.859845 
 3130000     306.955087   -4587.069001   -5502.958785       0.000000       0.000000       0.000000   25007.906764  -31584.713988    1073.848439 
 3140000     290.906373   -4660.465668   -5528.469445       0.000000       0.000000       0.000000   24958.444379  -31585.089348    1098.175525 
 3150000     300.539550   -4550.310503   -5447.057664       0.000000       0.000000       0.000000   25081.105946  -31584.642553    1056.478944 
 3160000     314.807588   -4560.779662   -5500.099665       0.000000       0.000000       0.000000   25004.994912  -31584.214133    1079.119556 
 3170000     295.735071   -4697.072268   -5579.483869       0.000000       0.000000       0.000000   24918.431061  -31582.810924    1084.895994 
 3180000     302.657513   -4568.337245   -5471.403967       0.000000       0.000000       0.000000   25010.504210  -31582.072147    1100.163970 
 3190000     305.559071   -4657.065143   -5568.789506       0.000000       0.000000       0.000000   24917.070260  -31579.756604    1093.896838 
 3200000     290.505522   -4652.360355   -5519.168075       0.000000       0.000000       0.000000   24899.991713  -31578.176991    1159.017203 
 3210000     298.608436   -4635.936562   -5526.921685       0.000000       0.000000       0.000000   24979.832789  -31582.853545    1076.099071 
 3220000     290.520613   -4592.428837   -5459.281587       0.000000       0.000000       0.000000   25069.689588  -31584.201489    1055.230314 
 3230000     292.600834   -4713.710974   -5586.770667       0.000000       0.000000       0.000000   24876.172092  -31587.534434    1124.591674 
 3240000     299.455462   -4639.231710   -5532.744179       0.000000       0.000000       0.000000   25005.480198  -31584.852864    1046.628486 
 3250000     302.724860   -4587.448665   -5490.716335       0.000000       0.000000       0.000000   25032.501303  -31580.440638    1057.223000 
 3260000     304.380038   -4570.381649   -5478.588025       0.000000       0.000000       0.000000   25065.281259  -31581.621558    1037.752274 
 3270000     310.882778   -4558.489167   -5486.098358       0.000000       0.000000       0.000000   24962.325157  -31582.408577    1133.985062 
 3280000     293.461452   -4689.425277   -5565.052874       0.000000       0.000000       0.000000   24922.700437  -31585.025765    1097.272455 
 3290000     289.812316   -4701.545325   -5566.284664       0.000000       0.000000       0.000000   24881.741593  -31585.679255    1137.652998 
 3300000     301.479207   -4595.301767   -5494.852669       0.000000       0.000000       0.000000   25048.642740  -31581.331697    1037.836288 
 3310000     300.323622   -4604.653257   -5500.756135       0.000000       0.000000       0.000000   24979.069337  -31581.219283    1101.393811 
 3320000     296.654462   -4615.315413   -5500.470284       0.000000       0.000000       0.000000   25054.181549  -31584.047306    1029.395473 
 3330000     300.661685   -4662.443939   -5559.555525       0.000000       0.000000       0.000000   24832.081902  -31584.885750    1193.248322 
 3340000     298.495909   -4641.951695   -5532.601059       0.000000       0.000000       0.000000   24917.365737  -31586.434484    1136.467689 
 3350000     309.341719   -4555.689088   -5478.700081       0.000000       0.000000       0.000000   25091.928402  -31584.616799    1013.988315 
 3360000     306.767346   -4587.657393   -5502.986997       0.000000       0.000000       0.000000   24949.107567  -31585.238104    1133.143540 
 3370000     292.375256   -4650.421850   -5522.808467       0.000000       0.000000       0.000000   24879.050050  -31583.117203    1181.258685 
 3380000     312.865726   -4620.857517   -5554.383410       0.000000       0.000000       0.000000   24917.937879  -31585.829159    1113.507870 
 3390000     314.299877   -4560.104864   -5497.909964       0.000000       0.000000       0.000000   24998.599874  -31583.991260    1087.481422 
 3400000     299.313399   -4609.937301   -5503.025886       0.000000       0.000000       0.000000   24995.500056  -31583.752186    1085.226244 
 3410000     298.595373   -4688.845979   -5579.792125       0.000000       0.000000       0.000000   24912.708076  -31586.259334    1093.759133 
 3420000     300.806491   -4684.414490   -5581.958148       0.000000       0.000000       0.000000   24868.993221  -31583.476156    1132.524787 
 3430000     294.263373   -4704.764504   -5582.784868       0.000000       0.000000       0.000000   24902.583541  -31585.323888    1099.955479 
 3440000     291.900269   -4648.624150   -5519.593503       0.000000       0.000000       0.000000   24988.275817  -31581.521668    1073.652348 
 3450000     297.277639   -4671.685983   -5558.700284       0.000000       0.000000       0.000000   24997.425636  -31583.361632    1027.235712 
 3460000     303.354445   -4590.719175   -5495.865394       0.000000       0.000000       0.000000   25009.161980  -31581.701191    1076.673816 
 3470000     302.582872   -4606.952904   -5509.796912       0.000000       0.000000       0.000000   25037.282875  -31586.048724    1038.968937 
 3480000     286.366301   -4745.883004   -5600.340156       0.000000       0.000000       0.000000   24884.036854  -31584.004600    1099.627589 
 3490000     308.880160   -4623.327496   -5544.961294       0.000000       0.000000       0.000000   24880.065643  -31587.470542    1162.443605 
 3500000     290.466543   -4645.265322   -5511.956737       0.000000       0.000000       0.000000   24971.185357  -31585.419382    1102.277288 
 3510000     307.806353   -4586.301959   -5504.731742       0.000000       0.000000       0.000000   25047.358943  -31584.899954    1032.809269 
 3520000     300.069762   -4697.343679   -5592.689093       0.000000       0.000000       0.000000   24868.129576  -31585.336490    1124.517821 
 3530000     306.703950   -4615.687423   -5530.827866       0.000000       0.000000       0.000000   24969.147802  -31580.191403    1080.215735 
 3540000     296.376786   -4604.829897   -5489.156244       0.000000       0.000000       0.000000   24974.601938  -31582.980153    1119.221972 
 3550000     301.168399   -4690.864940   -5589.488456       0.000000       0.000000       0.000000   24852.425959  -31580.994291    1139.079877 
 3560000     303.366561   -4640.709241   -5545.891613       0.000000       0.000000       0.000000   24942.682103  -31578.019573    1089.445857 
 3570000     301.544624   -4602.374273   -5502.120365       0.000000       0.000000       0.000000   24996.261029  -31583.301325    1084.919931 
 3580000     295.112658   -4742.130073   -5622.684526       0.000000       0.000000       0.000000   24854.474412  -31586.701539    1109.542601 
 3590000     300.915186   -4685.627650   -5583.495632       0.000000       0.000000       0.000000   24929.296825  -31585.263246    1072.470788 
 3600000     297.039615   -4634.609451   -5520.913539       0.000000       0.000000       0.000000   24999.480604  -31582.760032    1062.365889 
 3610000     308.970122   -4616.874063   -5538.776288       0.000000       0.000000       0.000000   24964.866491  -31583.280289    1079.637510 
 3620000     297.515206   -4659.616525   -5547.339678       0.000000       0.000000       0.000000   24976.417454  -31583.959633    1060.202500 
 3630000     296.212110   -4546.876698   -5430.711683       0.000000       0.000000       0.000000   25050.928149  -31581.916608    1100.276777 
 3640000     305.160273   -4561.113663   -5471.648095       0.000000       0.000000       0.000000   24995.266520  -31582.649834    1115.735220 
 3650000     300.881794   -4643.336698   -5541.105044       0.000000       0.000000       0.000000   24926.800342  -31584.129347    1116.223961 
 3660000     296.910709   -4630.535979   -5516.455439       0.000000       0.000000       0.000000   25051.047346  -31580.767672    1013.264887 
 3670000     300.197609   -4612.786248   -5508.513128       0.000000       0.000000       0.000000   25000.063332  -31582.054852    1073.478391 
 3680000     302.809945   -4587.281339   -5490.802886       0.000000       0.000000       0.000000   25059.093466  -31581.684299    1031.787947 
 3690000     305.633484   -4642.776621   -5554.723019       0.000000       0.000000       0.000000   24965.018457  -31584.287659    1064.546184 
 3700000     305.507084   -4620.548638   -5532.117882       0.000000       0.000000       0.000000   24918.020589  -31580.734238    1130.595768 
 3710000     302.260869   -4569.254997   -5471.138216       0.000000       0.000000       0.000000   25073.152794  -31578.294299    1034.003290 
 3720000     293.648835   -4636.096810   -5512.283518       0.000000       0.000000       0.000000   24972.140079  -31581.999613    1097.576016 
 3730000     306.735513   -4621.969043   -5537.203665       0.000000       0.000000       0.000000   24916.769704  -31585.942485    1131.969116 
 3740000     308.297115   -4590.802484   -5510.696599       0.000000       0.000000       0.000000   24944.862157  -31586.086307    1130.527552 
 3750000     290.654454   -4723.531524   -5590.783629       0.000000       0.000000       0.000000   24784.450595  -31586.554576    1211.320352 
 3760000     297.206174   -4670.294972   -5557.096039       0.000000       0.000000       0.000000   24876.039429  -31585.636993    1152.501525 
 3770000     295.366667   -4663.416719   -5544.729081       0.000000       0.000000       0.000000   24938.941949  -31581.640335    1097.969305 
 3780000     295.468888   -4628.728105   -5510.345473       0.000000       0.000000       0.000000   24951.122833  -31583.808555    1122.340249 
 3790000     294.957826   -4623.734418   -5503.826884       0.000000       0.000000       0.000000   24966.778990  -31582.366530    1111.760655 
 3800000     301.210169   -4613.674396   -5512.422544       0.000000       0.000000       0.000000   24944.458425  -31585.709864    1128.828894 
 3810000     301.625690   -4569.516497   -5469.504474       0.000000       0.000000       0.000000   25112.355593  -31583.475905    1001.615838 
 3820000     291.812973   -4644.823723   -5515.532606       0.000000       0.000000       0.000000   24941.115505  -31580.651253    1124.003143 
 3830000     293.902907   -4671.417820   -5548.362629       0.000000       0.000000       0.000000   24934.423687  -31585.822716    1103.036401 
 3840000     311.034280   -4611.962573   -5540.023816       0.000000       0.000000       0.000000   24951.141817  -31583.394092    1092.228459 
 3850000     291.246241   -4670.873715   -5539.891588       0.000000       0.000000       0.000000   24923.235998  -31579.636384    1116.508798 
 3860000     314.047137   -4683.700173   -5620.751151       0.000000       0.000000       0.000000   24794.166204  -31578.594228    1163.676872 
 3870000     293.519710   -4716.995243   -5592.796672       0.000000       0.000000       0.000000   24863.435499  -31585.488046    1129.255875 
 3880000     310.323172   -4618.752950   -5544.692393       0.000000       0.000000       0.000000   24951.415650  -31582.668173    1086.560130 
 3890000     301.416653   -4600.068168   -5499.432422       0.000000       0.000000       0.000000   24972.463644  -31584.242775    1112.346710 
 3900000     289.134719   -4678.697614   -5541.415145       0.000000       0.000000       0.000000   24944.942640  -31580.890163    1094.532379 
 3910000     281.026584   -4655.110866   -5493.635420       0.000000       0.000000       0.000000   25014.633991  -31586.943756    1078.674346 
 3920000     297.754635   -4643.251387   -5531.688947       0.000000       0.000000       0.000000   24990.583957  -31580.994255    1058.721351 
 3930000     306.394115   -4672.469996   -5586.685956       0.000000       0.000000       0.000000   24878.171738  -31586.364357    1121.506662 
 3940000     293.958235   -4740.281572   -5617.391468       0.000000       0.000000       0.000000   24812.001097  -31581.421363    1152.028799 
 3950000     301.415535   -4703.164539   -5602.525458       0.000000       0.000000       0.000000   24844.205135  -31586.008252    1139.277659 
 3960000     311.317749   -4531.664909   -5460.571964       0.000000       0.000000       0.000000   25002.000195  -31583.823551    1121.251392 
 3970000     301.531394   -4676.264887   -5575.971504       0.000000       0.000000       0.000000   24900.255043  -31582.312168    1106.085621 
 3980000     312.839597   -4500.029694   -5433.477625       0.000000       0.000000       0.000000   25165.457136  -31583.569914     984.635154 
 3990000     291.529389   -4660.993781   -5530.856507       0.000000       0.000000       0.000000   24904.517883  -31581.998097    1146.623707 
 4000000     300.733685   -4711.207035   -5608.533457       0.000000       0.000000       0.000000   24857.286619  -31585.367622    1119.547546 
 4010000     298.204532   -4616.540033   -5506.319991       0.000000       0.000000       0.000000   24967.182622  -31582.579009    1109.076397 
 4020000     307.027575   -4509.132256   -5425.238328       0.000000       0.000000       0.000000   25116.877082  -31578.003182    1035.887771 
 4030000     302.920096   -4707.191769   -5611.041984       0.000000       0.000000       0.000000   24868.255329  -31583.942501    1104.645188 
 4040000     303.751780   -4613.191512   -5519.523295       0.000000       0.000000       0.000000   24916.822470  -31583.337619    1146.991854 
 4050000     284.432872   -4676.926339   -5525.614543       0.000000       0.000000       0.000000   24987.769292  -31583.864494    1070.480659 
 4060000     293.466418   -4646.566086   -5522.208503       0.000000       0.000000       0.000000   24987.686051  -31583.113777    1073.219223 
 4070000     301.542091   -4649.275112   -5549.013648       0.000000       0.000000       0.000000   24964.893289  -31584.977516    1071.070579 
 4080000     287.241857   -4696.424735   -5553.494364       0.000000       0.000000       0.000000   24877.583055  -31584.265231    1153.187812 
 4090000     318.020614   -4652.590277   -5601.497280       0.000000       0.000000       0.000000   24762.848929  -31584.679941    1220.333733 
 4100000     300.385694   -4593.159360   -5489.447449       0.000000       0.000000       0.000000   25004.030022  -31583.419682    1089.942211 
 4110000     310.363567   -4571.562221   -5497.622197       0.000000       0.000000       0.000000   25002.523176  -31582.652784    1082.507411 
 4120000     303.842873   -4592.481553   -5499.085139       0.000000       0.000000       0.000000   25019.307770  -31582.085870    1063.692961 
 4130000     281.370580   -4730.750430   -5570.301397       0.000000       0.000000       0.000000   24882.096338  -31589.348379    1136.950644 
 4140000     309.150566   -4609.479668   -5531.920300       0.000000       0.000000       0.000000   24991.979949  -31583.259568    1059.359319 
 4150000     305.315412   -4587.699335   -5498.696671       0.000000       0.000000       0.000000   25016.699220  -31582.432429    1067.036538 
 4160000     287.558115   -4622.787759   -5480.801034       0.000000       0.000000       0.000000   25001.442892  -31588.305550    1106.061624 
 4170000     302.829168   -4582.092881   -5485.671785       0.000000       0.000000       0.000000   24977.645298  -31580.466817    1117.149734 
 4180000     292.343311   -4641.185764   -5513.477063       0.000000       0.000000       0.000000   24965.442958  -31582.077501    1103.157480 
 4190000     303.626031   -4697.545278   -5603.501853       0.000000       0.000000       0.000000   24994.993065  -31586.030077     987.535159 
 4200000     295.741833   -4632.763464   -5515.195243       0.000000       0.000000       0.000000   25004.504172  -31581.363345    1061.663931 
 4210000     292.613414   -4615.071693   -5488.168922       0.000000       0.000000       0.000000   25058.232484  -31582.190610    1035.789204 
 4220000     284.689066   -4734.711910   -5584.164545       0.000000       0.000000       0.000000   24905.094502  -31586.831792    1097.572745 
 4230000     306.592257   -4620.328641   -5535.135815       0.000000       0.000000       0.000000   24896.200941  -31581.204453    1149.867698 
 4240000     304.513688   -4621.890322   -5530.495482       0.000000       0.000000       0.000000   24988.446210  -31582.530771    1063.589080 
 4250000     309.187313   -4634.046710   -5556.596987       0.000000       0.000000       0.000000   24942.899527  -31584.822423    1085.325908 
 4260000     300.731545   -4599.284166   -5496.604201       0.000000       0.000000       0.000000   24967.277091  -31586.022630    1122.141338 
 4270000     299.218240   -4596.431865   -5489.236514       0.000000       0.000000       0.000000   25021.014435  -31582.697144    1072.446194 
 4280000     298.273523   -4581.051532   -5471.037343       0.000000       0.000000       0.000000   25010.813791  -31577.696549    1095.845416 
 4290000     310.120192   -4653.441986   -5578.775782       0.000000       0.000000       0.000000   24886.554945  -31588.153825    1122.823099 
 4300000     298.467265   -4660.626292   -5551.190188       0.000000       0.000000       0.000000   24901.836592  -31582.174047    1129.147268 
 4310000     292.440925   -4649.387692   -5521.970252       0.000000       0.000000       0.000000   24951.717995  -31582.972936    1109.284689 
 4320000     291.312620   -4646.695383   -5515.911314       0.000000       0.000000       0.000000   25010.919274  -31580.308575    1053.477987 
 4330000     301.671493   -4585.229808   -5485.354450       0.000000       0.000000       0.000000   24995.404580  -31580.432257    1099.673227 
 4340000     289.219521   -4750.226135   -5613.196699       0.000000       0.000000       0.000000   24836.539687  -31584.415483    1134.679097 
 4350000     295.327534   -4622.450605   -5503.646200       0.000000       0.000000       0.000000   25041.172625  -31585.495476    1040.676650 
 4360000     295.651275   -4592.079889   -5474.241461       0.000000       0.000000       0.000000   25001.799241  -31578.031007    1101.990305 
 4370000     302.844200   -4578.025860   -5481.649617       0.000000       0.000000       0.000000   25049.068401  -31583.145888    1052.427870 
 4380000     296.956144   -4659.081978   -5545.137008       0.000000       0.000000       0.000000   24941.382385  -31583.944803    1097.425411 
 4390000     297.071678   -4615.999313   -5502.399070       0.000000       0.000000       0.000000   24924.921204  -31579.580726    1152.260453 
 4400000     300.421679   -4650.239702   -5546.635161       0.000000       0.000000       0.000000   24943.543848  -31585.905156    1095.726147 
 4410000     300.594615   -4596.347081   -5493.258546       0.000000       0.000000       0.000000   25025.921173  -31584.360990    1065.181272 
 4420000     304.301047   -4552.538496   -5460.509178       0.000000       0.000000       0.000000   25094.402869  -31584.059626    1029.147579 
 4430000     322.418461   -4536.669172   -5498.698430       0.000000       0.000000       0.000000   25030.047620  -31582.777776    1054.031725 
 4440000     292.572406   -4633.204389   -5506.179260       0.000000       0.000000       0.000000   25002.947948  -31581.657791    1072.530583 
 4450000     310.004785   -4609.806267   -5534.795711       0.000000       0.000000       0.000000   24997.887817  -31577.521980    1044.838452 
 4460000     296.264705   -4648.450503   -5532.442422       0.000000       0.000000       0.000000   24921.054020  -31585.136438    1131.639996 
 4470000     280.408722   -4674.906773   -5511.587756       0.000000       0.000000       0.000000   24987.437789  -31583.801744    1084.776199 
 4480000     279.299983   -4754.698826   -5588.071563       0.000000       0.000000       0.000000   24866.004970  -31581.274046    1127.197512 
 4490000     297.593923   -4619.863690   -5507.821716       0.000000       0.000000       0.000000   24982.940558  -31579.222993    1088.460719 
 4500000     298.016313   -4576.064820   -5465.283170       0.000000       0.000000       0.000000   25076.521085  -31586.188810    1044.384554 
 4510000     305.391013   -4680.828425   -5592.051337       0.000000       0.000000       0.000000   24831.993476  -31585.208513    1161.163700 
 4520000     283.790907   -4675.470432   -5522.243147       0.000000       0.000000       0.000000   24915.185107  -31585.551965    1148.123712 
 4530000     299.039765   -4713.205020   -5605.477138       0.000000       0.000000       0.000000   24840.358600  -31586.980065    1141.144327 
 4540000     300.981986   -4576.449532   -5474.516831       0.000000       0.000000       0.000000   25028.566166  -31582.350918    1079.267921 
 4550000     294.644098   -4634.052040   -5513.208407       0.000000       0.000000       0.000000   24894.558220  -31586.720850    1178.954223 
 4560000     296.380311   -4585.951607   -5470.288471       0.000000       0.000000       0.000000   25032.053618  -31580.419341    1078.077251 
 4570000     299.479438   -4627.642056   -5521.226066       0.000000       0.000000       0.000000   25007.168325  -31582.039696    1053.645305 
 4580000     284.736867   -4663.330694   -5512.925956       0.000000       0.000000       0.000000   24960.796827  -31582.045477    1108.322694 
 4590000     306.562509   -4613.563461   -5528.281872       0.000000       0.000000       0.000000   24998.905858  -31582.800912    1055.613182 
 4600000     296.537772   -4680.019176   -5564.825870       0.000000       0.000000       0.000000   24903.824855  -31583.144156    1114.493431 
 4610000     298.267331   -4668.324502   -5558.291839       0.000000       0.000000       0.000000   24858.965377  -31585.513147    1168.255931 
 4620000     299.815994   -4666.076099   -5560.664322       0.000000       0.000000       0.000000   24911.653370  -31581.768785    1109.451093 
 4630000     291.624398   -4658.901449   -5529.047662       0.000000       0.000000       0.000000   24956.588396  -31581.643648    1096.007590 
 4640000     286.729171   -4640.672559   -5496.212438       0.000000       0.000000       0.000000   25051.246657  -31581.859948    1034.400853 
 4650000     294.514002   -4637.068809   -5515.836998       0.000000       0.000000       0.000000   25064.726590  -31585.040546    1004.476959 
 4660000     305.631776   -4600.733211   -5512.674511       0.000000       0.000000       0.000000   24979.333584  -31577.493571    1085.485475 
 4670000     301.279548   -4570.281441   -5469.236604       0.000000       0.000000       0.000000   25020.947579  -31585.464099    1095.279916 
 4680000     295.515358   -4588.370911   -5470.126936       0.000000       0.000000       0.000000   25053.333236  -31583.036740    1059.576568 
 4690000     291.267039   -4622.688165   -5491.768092       0.000000       0.000000       0.000000   24982.217725  -31585.032272    1111.046455 
 4700000     300.377318   -4592.539072   -5488.802169       0.000000       0.000000       0.000000   24986.252517  -31585.030097    1109.975412 
 4710000     305.525866   -4612.601182   -5524.226470       0.000000       0.000000       0.000000   25041.476194  -31582.282628    1016.579964 
 4720000     290.696616   -4673.168846   -5540.546753       0.000000       0.000000       0.000000   24903.427003  -31587.026069    1143.052313 
 4730000     303.902723   -4662.363494   -5569.145661       0.000000       0.000000       0.000000   24903.806972  -31579.466984    1106.514350 
 4740000     289.527961   -4693.811041   -5557.701924       0.000000       0.000000       0.000000   24915.940635  -31581.572829    1107.930269 
 4750000     293.641888   -4610.738425   -5486.904406       0.000000       0.000000       0.000000   25051.511626  -31581.017765    1042.601733 
 4760000     299.473042   -4614.688233   -5508.253160       0.000000       0.000000       0.000000   25055.084182  -31583.034894    1019.697552 
 4770000     286.815127   -4705.720069   -5561.516424       0.000000       0.000000       0.000000   24995.889823  -31584.017067    1026.610820 
 4780000     305.729843   -4591.335844   -5503.569755       0.000000       0.000000       0.000000   24933.694185  -31582.215137    1144.951198 
 4790000     297.105128   -4608.415330   -5494.914896       0.000000       0.000000       0.000000   25008.759010  -31581.942422    1078.268516 
 4800000     295.176239   -4673.102593   -5553.846756       0.000000       0.000000       0.000000   24911.294898  -31573.408908    1108.267254 
 4810000     312.963707   -4596.953198   -5530.771446       0.000000       0.000000       0.000000   24934.379593  -31579.297236    1114.146198 
 4820000     310.413229   -4678.003020   -5604.211177       0.000000       0.000000       0.000000   24877.797298  -31584.849090    1102.840616 
 4830000     301.890561   -4652.518616   -5553.296912       0.000000       0.000000       0.000000   24973.649574  -31584.834796    1057.888310 
 4840000     308.189098   -4514.244966   -5433.816780       0.000000       0.000000       0.000000   25112.803291  -31577.760662    1031.140591 
 4850000     306.084164   -4593.946959   -5507.238091       0.000000       0.000000       0.000000   24994.239879  -31585.848535    1084.370565 
 4860000     293.852309   -4652.728352   -5529.522185       0.000000       0.000000       0.000000   25028.735480  -31586.300965    1028.043301 
 4870000     296.554516   -4681.968540   -5566.825195       0.000000       0.000000       0.000000   24919.320491  -31585.805774    1099.660089 
 4880000     307.859743   -4655.788515   -5574.377603       0.000000       0.000000       0.000000   24929.498519  -31585.455386    1081.579264 
 4890000     304.478349   -4634.398924   -5542.898637       0.000000       0.000000       0.000000   25019.310003  -31580.624556    1018.415916 
 4900000     300.809483   -4601.099784   -5498.652370       0.000000       0.000000       0.000000   25036.927116  -31580.896560    1045.317074 
 4910000     295.764070   -4668.173835   -5550.671963       0.000000       0.000000       0.000000   24932.919918  -31580.672180    1097.080300 
 4920000     300.101029   -4616.932830   -5512.371538       0.000000       0.000000       0.000000   25020.526927  -31579.946465    1047.048000 
 4930000     288.827593   -4661.342374   -5523.143507       0.000000       0.000000       0.000000   25005.832940  -31584.467579    1055.491132 
 4940000     309.390115   -4631.320015   -5554.475411       0.000000       0.000000       0.000000   24877.200054  -31585.939256    1154.263791 
 4950000     295.945792   -4695.652596   -5578.692945       0.000000       0.000000       0.000000   24886.076955  -31586.442671    1121.672771 
 4960000     295.552061   -4659.585476   -5541.451013       0.000000       0.000000       0.000000   24935.407544  -31584.444854    1107.586296 
 4970000     303.203166   -4619.469644   -5524.164478       0.000000       0.000000       0.000000   24969.120493  -31582.354017    1089.069045 
 4980000     288.718309   -4566.220656   -5427.695707       0.000000       0.000000       0.000000   25098.447225  -31581.187937    1055.045005 
 4990000     293.232418   -4632.848953   -5507.793161       0.000000       0.000000       0.000000   24942.673039  -31583.163326    1132.697126 
 5000000     300.545016   -4660.470271   -5557.233742       0.000000       0.000000       0.000000   24971.991835  -31585.604010    1056.378433 
Loop time of 9748.74 on 8 procs for 5000000 steps with 1503 atoms

Performance: 44.313 ns/day, 0.542 hours/ns, 512.887 timesteps/s
99.2% CPU use with 8 MPI tasks x 1 OpenMP threads

MPI task timing breakdown:
Section |  min time  |  avg time  |  max time  |%varavg| %total
---------------------------------------------------------------
Pair    | 4856.8     | 4869.5     | 4886       |  12.1 | 49.95
Bond    | 1.2692     | 1.4556     | 1.6114     |  11.4 |  0.01
Kspace  | 2613.2     | 2631.9     | 2643       |  17.9 | 27.00
Neigh   | 351.5      | 351.65     | 351.85     |   0.5 |  3.61
Comm    | 452.3      | 463.54     | 477.47     |  31.1 |  4.75
Output  | 2.0155     | 2.7932     | 3.0745     |  18.7 |  0.03
Modify  | 1329.4     | 1379       | 1418.6     |  60.7 | 14.15
Other   |            | 48.91      |            |       |  0.50

Nlocal:    187.875 ave 194 max 179 min
Histogram: 1 1 0 1 0 0 2 0 0 3
Nghost:    4578.75 ave 4620 max 4527 min
Histogram: 2 0 1 0 1 0 0 0 2 2
Neighs:    66705.1 ave 70487 max 63433 min
Histogram: 2 0 0 1 1 1 2 0 0 1

Total # of neighbors = 533641
Ave neighs/atom = 355.051
Ave special neighs/atom = 2
Neighbor list builds = 217041
Dangerous builds = 0
Total wall time: 3:15:14
