LAMMPS (3 Mar 2020)
  using 1 OpenMP thread(s) per MPI task
#CXE2
variable    lambda1  index   0.00922
variable    lambda2  index   0.04794
variable    lambda3  index   0.11505
variable    lambda4  index   0.20634
variable    lambda5  index   0.31608
variable    lambda6  index   0.43738
variable    lambda7  index   0.56262
variable    lambda8  index   0.68392
variable    lambda9  index   0.79366
variable    lambda10  index   0.88495
variable    lambda11  index   0.95206
variable    lambda12  index   0.99078

variable    lambda00  equal   ${lambda9}
variable    lambda00  equal   0.79366
variable    q10 equal -0.8476*v_lambda00
variable    q20 equal  0.4238*v_lambda00
variable    lambda01  equal   (v_lambda00-0.002)
variable    q11 equal -0.8476*v_lambda01
variable    q21 equal  0.4238*v_lambda01
variable    lambda02  equal   (v_lambda00+0.002)
variable    q12 equal -0.8476*v_lambda02
variable    q22 equal  0.4238*v_lambda02

atom_style	full
units		real
dimension	3
boundary	p p p
bond_style     	harmonic
angle_style    	harmonic

pair_style      hybrid     lj/cut/coul/long 10.0     lj/cut/coul/long/soft 1 0.5 10.0 10.0
pair_modify     shift yes mix geometric

kspace_style   	pppm 1e-5

read_data   lmp.data
  orthogonal box = (0 0 0) to (24 24 24)
  2 by 2 by 2 MPI processor grid
  reading atoms ...
  1503 atoms
  scanning bonds ...
  2 = max bonds/atom
  scanning angles ...
  1 = max angles/atom
  reading bonds ...
  1002 bonds
  reading angles ...
  501 angles
  2 = max # of 1-2 neighbors
  1 = max # of 1-3 neighbors
  1 = max # of 1-4 neighbors
  2 = max # of special neighbors
  special bonds CPU = 0.00114475 secs
  read_data CPU = 0.00695371 secs
include     lmp.setting
# ~~~~~BONDS~~~~~
# bond_coeff type k(kcal/mol/ang**2)  r0 (ang)
bond_coeff  1  600.000  1.000
bond_coeff  2  600.000  1.000

# ~~~~~ANGLES~~~~~
# angle_coeff type k(kcal/mol/rad**2)  theta_0 (degrees)
angle_coeff  1   75.000 109.470
angle_coeff  2   75.000 109.470

set         type 3 charge ${q10}
set         type 3 charge -0.672706216
  1 settings made for charge
set         type 4 charge ${q20}
set         type 4 charge 0.336353108
  2 settings made for charge

pair_coeff  1   1   lj/cut/coul/long   0.1553500  3.16600
pair_coeff  2   2   lj/cut/coul/long   0.0000000  1.00000
pair_coeff  3   3   lj/cut/coul/long   0.1553500  3.16600
pair_coeff  4   4   lj/cut/coul/long   0.0000000  1.00000

pair_coeff  1   3   lj/cut/coul/long/soft  0.1553500  3.16600  ${lambda00}
pair_coeff  1   3   lj/cut/coul/long/soft  0.1553500  3.16600  0.79366
pair_coeff  2   3   lj/cut/coul/long/soft  0.0000000  1.00000  ${lambda00}
pair_coeff  2   3   lj/cut/coul/long/soft  0.0000000  1.00000  0.79366

pair_coeff  1   4   lj/cut/coul/long/soft  0.0000000  1.00000  ${lambda00}
pair_coeff  1   4   lj/cut/coul/long/soft  0.0000000  1.00000  0.79366
pair_coeff  2   4   lj/cut/coul/long/soft  0.0000000  1.00000  ${lambda00}
pair_coeff  2   4   lj/cut/coul/long/soft  0.0000000  1.00000  0.79366

fix 		fShakeSPCE all shake 0.0001 20 0 b 1 2 a 1 2
  0 = # of size 2 clusters
  0 = # of size 3 clusters
  0 = # of size 4 clusters
  501 = # of frozen angles
  find clusters CPU = 0.0104783 secs

timestep    1.0
run_style   verlet

fix         fxnpt all npt temp 300.0 300.0 100.0 iso 1.0 1.0 1000

thermo_style    custom step etotal pe ecoul elong evdwl
thermo_modify   format float %20.12f
thermo		1

rerun ${lambda00}.lammpstrj dump x y z box yes
rerun 0.79366.lammpstrj dump x y z box yes
PPPM initialization ...
  using 12-bit tables for long-range coulomb (src/kspace.cpp:332)
  G vector (1/distance) = 0.315108
  grid = 24 24 24
  stencil order = 5
  estimated absolute RMS force accuracy = 0.00171257
  estimated relative force accuracy = 5.15737e-06
  using double precision MKL FFT
  3d grid and FFT values/proc = 6859 1728
Neighbor list info ...
  update every 1 steps, delay 10 steps, check yes
  max neighbors/atom: 2000, page size: 100000
  master list distance cutoff = 12
  ghost atom cutoff = 12
  binsize = 6, bins = 4 4 4
  3 neighbor lists, perpetual/occasional/extra = 3 0 0
  (1) pair lj/cut/coul/long, perpetual, skip from (3)
      attributes: half, newton on
      pair build: skip
      stencil: none
      bin: none
  (2) pair lj/cut/coul/long/soft, perpetual, skip from (3)
      attributes: half, newton on
      pair build: skip
      stencil: none
      bin: none
  (3) neighbor class addition, perpetual
      attributes: half, newton on
      pair build: half/bin/newton
      stencil: half/bin/3d/newton
      bin: standard
Per MPI rank memory allocation (min/avg/max) = 9.72 | 9.726 | 9.729 Mbytes
Step TotEng PotEng E_coul E_long E_vdwl 
       0   -5454.133689143924   -5454.133689143924   25276.865240489238  -31814.343803499327    1083.344873866170 
    1000   -5525.901788416402   -5525.901788416402   25158.212920250939  -31824.878408814486    1140.763700147143 
    2000   -5507.768121683974   -5507.768121683974   25261.636188844419  -31817.760562222098    1048.356251693707 
    3000   -5543.111825917778   -5543.111825917778   25266.264213760311  -31822.417426871976    1013.041387193888 
    4000   -5566.022680370654   -5566.022680370654   25089.608902822503  -31821.204055646624    1165.572472453469 
    5000   -5499.889114153062   -5499.889114153062   25269.094690008365  -31820.416234555702    1051.432430394273 
    6000   -5527.534256272054   -5527.534256272054   25283.106386506683  -31818.791322271580    1008.150679492844 
    7000   -5470.751768825150   -5470.751768825150   25321.794793824407  -31813.395482527816    1020.848919878263 
    8000   -5546.478833192952   -5546.478833192952   25207.607868363390  -31820.410040529096    1066.323338972756 
    9000   -5534.864840309714   -5534.864840309714   25249.386479401670  -31820.025873075723    1035.774553364335 
   10000   -5566.797241908542   -5566.797241908542   25120.740470323235  -31817.622084767041    1130.084372535261 
   11000   -5481.794486652361   -5481.794486652361   25231.199016454790  -31820.152672440316    1107.159169333164 
   12000   -5547.933121199199   -5547.933121199199   25166.042198445324  -31820.175302869433    1106.199983224913 
   13000   -5557.591574733524   -5557.591574733524   25173.701690568516  -31819.759155622065    1088.465890320030 
   14000   -5491.735826625078   -5491.735826625078   25249.840384442781  -31824.695519613717    1083.119308545861 
   15000   -5461.522998913086   -5461.522998913086   25340.036275197454  -31816.150172516864    1014.590898406328 
   16000   -5477.105539806544   -5477.105539806544   25299.209040831865  -31818.989926330963    1042.675345692556 
   17000   -5488.719615499849   -5488.719615499849   25214.387567029175  -31820.879322246412    1117.772139717386 
   18000   -5493.468637540271   -5493.468637540271   25269.400002500144  -31816.579435456599    1053.710795416182 
   19000   -5533.829182453628   -5533.829182453628   25270.305513317275  -31823.816550626016    1019.681854855116 
   20000   -5530.846037383541   -5530.846037383541   25204.352970331856  -31816.229359993122    1081.030352277726 
   21000   -5532.408255017286   -5532.408255017286   25231.644336465244  -31820.358478446786    1056.305886964255 
   22000   -5521.737420237136   -5521.737420237136   25223.050571885964  -31817.897407153709    1073.109415030606 
   23000   -5548.474466746371   -5548.474466746371   25184.846983515567  -31819.710631240290    1086.389180978352 
   24000   -5543.545059048178   -5543.545059048178   25189.021826106073  -31820.215656207987    1087.648771053738 
   25000   -5547.860226695713   -5547.860226695713   25119.462371230627  -31819.936648092375    1152.614050166033 
   26000   -5522.244368303145   -5522.244368303145   25174.606948473978  -31820.224133227090    1123.372816449968 
   27000   -5499.851728331018   -5499.851728331018   25204.465382606970  -31817.427097752618    1113.109986814632 
   28000   -5554.351588725600   -5554.351588725600   25207.252452244411  -31821.786725510574    1060.182684540564 
   29000   -5507.710208184948   -5507.710208184948   25267.761260557476  -31822.572228262034    1047.100759519609 
   30000   -5500.151036240695   -5500.151036240695   25184.662978655288  -31817.183852546408    1132.369837650432 
   31000   -5510.626436823313   -5510.626436823313   25231.159139784329  -31818.707999523147    1076.922422915506 
   32000   -5579.547123348457   -5579.547123348457   25113.085468714002  -31818.530963991980    1125.898371929518 
   33000   -5480.999974223741   -5480.999974223741   25268.145623488061  -31820.367592921713    1071.221995209909 
   34000   -5514.405298522233   -5514.405298522233   25224.365624706490  -31818.721857966819    1079.950934738101 
   35000   -5497.820153700570   -5497.820153700570   25235.289033791763  -31821.250401160771    1088.141213668440 
   36000   -5562.379055180871   -5562.379055180871   25124.320143790224  -31819.840875863789    1133.141676892695 
   37000   -5490.326280968668   -5490.326280968668   25277.386426908830  -31816.403350550507    1048.690642673010 
   38000   -5590.240685474648   -5590.240685474648   25147.521806302946  -31821.064409260132    1083.301917482541 
   39000   -5520.423148517268   -5520.423148517268   25178.938951373675  -31819.050013984637    1119.687914093698 
   40000   -5569.384447298056   -5569.384447298056   25159.239825670324  -31822.330970234289    1093.706697265906 
   41000   -5557.993715736869   -5557.993715736869   25193.445285193171  -31820.117879982452    1068.678879052414 
   42000   -5510.115589618272   -5510.115589618272   25195.021566347448  -31817.306825248561    1112.169669282842 
   43000   -5541.271345783887   -5541.271345783887   25169.427531611796  -31818.557158470376    1107.858281074691 
   44000   -5513.892291543925   -5513.892291543925   25243.669505229911  -31824.585586489684    1067.023789715845 
   45000   -5483.084148847760   -5483.084148847760   25278.846734445829  -31818.983849355162    1057.052966061571 
   46000   -5571.125577829676   -5571.125577829676   25095.664140439894  -31818.265313319269    1151.475595049699 
   47000   -5467.958176046370   -5467.958176046370   25250.305505335600  -31817.766123106558    1099.502441724586 
   48000   -5481.512523825437   -5481.512523825437   25304.825644483801  -31818.213438131897    1031.875269822658 
   49000   -5470.161477946804   -5470.161477946804   25228.797829420844  -31817.393736750859    1118.434429383208 
   50000   -5529.872480729831   -5529.872480729831   25206.605862683373  -31820.646796163532    1084.168452750324 
   51000   -5567.769454888508   -5567.769454888508   25160.447899334635  -31820.720939998457    1092.503585775318 
   52000   -5511.871388855852   -5511.871388855852   25213.590703585414  -31816.017819680430    1090.555727239160 
   53000   -5464.589045415451   -5464.589045415451   25218.042967048445  -31818.744600906499    1136.112588442602 
   54000   -5499.007115464214   -5499.007115464214   25244.778621577992  -31819.858481970768    1076.072744928560 
   55000   -5509.853440862713   -5509.853440862713   25178.358657073732  -31820.674367680538    1132.462269744098 
   56000   -5531.383005322823   -5531.383005322823   25262.134282122483  -31815.111118163164    1021.593830717862 
   57000   -5539.971976429246   -5539.971976429246   25194.613822416857  -31820.633791476790    1086.047992630684 
   58000   -5479.139478895555   -5479.139478895555   25306.632313315284  -31818.856272015571    1033.084479804727 
   59000   -5521.751555410297   -5521.751555410297   25227.288944036489  -31816.050713539928    1067.010214093141 
   60000   -5514.283208905457   -5514.283208905457   25197.961602636398  -31819.758090221512    1107.513278679658 
   61000   -5562.341853965750   -5562.341853965750   25223.775309675704  -31823.132309720706    1037.015146079249 
   62000   -5559.049741514656   -5559.049741514656   25180.662350090788  -31818.423286447152    1078.711194841707 
   63000   -5610.219121664588   -5610.219121664588   25045.366361896158  -31818.981427775580    1163.395944214836 
   64000   -5566.805141155681   -5566.805141155681   25086.056563568469  -31819.653770580517    1166.792065856371 
   65000   -5540.633030339231   -5540.633030339231   25173.935948095314  -31815.469881060741    1100.900902626200 
   66000   -5476.715445070917   -5476.715445070917   25289.330161934820  -31816.047926369542    1050.002319363806 
   67000   -5522.974204947343   -5522.974204947343   25236.357786964494  -31821.085823052035    1061.753831140197 
   68000   -5528.372563923615   -5528.372563923615   25174.564251544569  -31817.790893330282    1114.854077862100 
   69000   -5519.302020721905   -5519.302020721905   25199.193796184045  -31816.630188220712    1098.134371314761 
   70000   -5481.679923433498   -5481.679923433498   25233.652923829330  -31817.874565980557    1102.541718717730 
   71000   -5531.145942011473   -5531.145942011473   25181.627329330087  -31820.779668761872    1108.006397420310 
   72000   -5498.306817838471   -5498.306817838471   25291.024835452874  -31819.561949201896    1030.230295910556 
   73000   -5586.640863183497   -5586.640863183497   25079.905217937750  -31820.676330962004    1154.130249840755 
   74000   -5560.085468538837   -5560.085468538837   25074.890880645791  -31816.064197952652    1181.087848768020 
   75000   -5556.914180938413   -5556.914180938413   25167.002565539355  -31818.570939638445    1094.654193160679 
   76000   -5575.630947317404   -5575.630947317404   25149.137903276889  -31821.243993926171    1096.475143331879 
   77000   -5474.086392724723   -5474.086392724723   25261.153911037087  -31813.715638519501    1078.475334757686 
   78000   -5495.985279799726   -5495.985279799726   25241.751763650907  -31819.536696872216    1081.799653421576 
   79000   -5555.437694750955   -5555.437694750955   25170.061050173805  -31820.096360106185    1094.597615181426 
   80000   -5589.285881664768   -5589.285881664768   25128.169197379968  -31822.773501223437    1105.318422178702 
   81000   -5510.328713064344   -5510.328713064344   25252.527422215779  -31821.443281278738    1058.587145998621 
   82000   -5587.740050486278   -5587.740050486278   25116.132349435167  -31820.046981735071    1116.174581813627 
   83000   -5623.596686441211   -5623.596686441211   25050.117483735365  -31821.678919400772    1147.964749224196 
   84000   -5552.004464762227   -5552.004464762227   25147.086431630218  -31820.277340686167    1121.186444293723 
   85000   -5443.539518620924   -5443.539518620924   25309.370875483328  -31818.523926753460    1065.613532649209 
   86000   -5475.959226948082   -5475.959226948082   25236.935584627550  -31820.325095763637    1107.430284188000 
   87000   -5557.720895709575   -5557.720895709575   25150.327794472927  -31820.060656688638    1112.011966506133 
   88000   -5501.150840720260   -5501.150840720260   25240.789656829253  -31816.916981024999    1074.976483475484 
   89000   -5562.339376654581   -5562.339376654581   25158.230973658308  -31821.778769304929    1101.208418992043 
   90000   -5474.787406317289   -5474.787406317289   25286.556666042350  -31819.015747242509    1057.671674882874 
   91000   -5542.968837660301   -5542.968837660301   25176.099951194206  -31820.071098349392    1101.002309494884 
   92000   -5532.151446645024   -5532.151446645024   25232.578022409998  -31818.651823347165    1053.922354292144 
   93000   -5502.109148658674   -5502.109148658674   25230.203780030624  -31818.221544242686    1085.908615553383 
   94000   -5536.883132602623   -5536.883132602623   25186.433163930498  -31822.460766220367    1099.144469687239 
   95000   -5593.047143551114   -5593.047143551114   25034.187817311446  -31821.547028330002    1194.312067467446 
   96000   -5557.076853032064   -5557.076853032064   25173.603777587468  -31824.206809860130    1093.526179240599 
   97000   -5521.707623123828   -5521.707623123828   25274.407098287738  -31823.497223510629    1027.382502099065 
   98000   -5586.892569219708   -5586.892569219708   25063.849645398157  -31821.884211110570    1171.141996492704 
   99000   -5517.967144445058   -5517.967144445058   25232.303954983698  -31820.936080459949    1070.664981031199 
  100000   -5487.695743224682   -5487.695743224682   25322.117281003077  -31816.156897653374    1006.343873425614 
  101000   -5582.470034592425   -5582.470034592425   25104.040654395641  -31822.293346425566    1135.782657437496 
  102000   -5547.946722727735   -5547.946722727735   25157.986121117869  -31822.414553636765    1116.481709791166 
  103000   -5565.366640891640   -5565.366640891640   25101.208239227930  -31822.021018059633    1155.446137940064 
  104000   -5570.823541411632   -5570.823541411632   25132.197561291174  -31820.735473110544    1117.714370407740 
  105000   -5560.621346642456   -5560.621346642456   25202.721469167842  -31818.247521881200    1054.904706070905 
  106000   -5558.770140720626   -5558.770140720626   25185.548050563630  -31819.958267641246    1075.640076356988 
  107000   -5538.141210096492   -5538.141210096492   25223.995503314938  -31818.592990402034    1056.456276990603 
  108000   -5391.238929214887   -5391.238929214887   25337.736086754077  -31810.764862568980    1081.789846600014 
  109000   -5468.456149687041   -5468.456149687041   25285.997212015805  -31818.555284919847    1064.101923216999 
  110000   -5525.995843795197   -5525.995843795197   25140.340158225554  -31822.047638432752    1155.711636412008 
  111000   -5503.173738292120   -5503.173738292120   25157.390060707905  -31819.771903057248    1159.208104057218 
  112000   -5519.885874138752   -5519.885874138752   25179.178572956691  -31822.513079584343    1123.448632488901 
  113000   -5475.537967345343   -5475.537967345343   25216.826058274943  -31821.041900442629    1128.677874822348 
  114000   -5504.440226561685   -5504.440226561685   25212.648334061305  -31822.350643575970    1105.262082952980 
  115000   -5542.074883594836   -5542.074883594836   25084.429020480613  -31820.237722802689    1193.733818727241 
  116000   -5522.596457355841   -5522.596457355841   25191.191435664507  -31818.329507516170    1104.541614495817 
  117000   -5594.516812164617   -5594.516812164617   25092.227041870956  -31820.438717082816    1133.694863047249 
  118000   -5538.234101318914   -5538.234101318914   25192.938565346536  -31821.073835401385    1089.901168735936 
  119000   -5557.079886168471   -5557.079886168471   25152.692064617833  -31820.472991779538    1110.701040993234 
  120000   -5569.337329287642   -5569.337329287642   25145.547820729560  -31821.777948861978    1106.892798844774 
  121000   -5487.050454853936   -5487.050454853936   25171.465396239342  -31819.372957142386    1160.857106049108 
  122000   -5464.179917429934   -5464.179917429934   25333.773534811491  -31818.282392176898    1020.328939935473 
  123000   -5469.864289967514   -5469.864289967514   25316.118473714610  -31823.155668072479    1037.172904390358 
  124000   -5513.492012595183   -5513.492012595183   25247.754555151390  -31820.973902098653    1059.727334352079 
  125000   -5452.841222376956   -5452.841222376956   25350.782382314988  -31818.960011039664    1015.336406347720 
  126000   -5514.261429871232   -5514.261429871232   25243.858394073497  -31821.498133907367    1063.378309962642 
  127000   -5485.834389589058   -5485.834389589058   25272.507307237647  -31819.643779686689    1061.302082859984 
  128000   -5502.707334348972   -5502.707334348972   25236.853353872866  -31820.157675825194    1080.596987603358 
  129000   -5493.610236349657   -5493.610236349657   25279.213831319681  -31819.054616196245    1046.230548526904 
  130000   -5488.655918837470   -5488.655918837470   25238.579569063906  -31818.903933283251    1091.668445381876 
  131000   -5527.168358089308   -5527.168358089308   25211.092361086703  -31820.907278596867    1082.646559420854 
  132000   -5496.700958249519   -5496.700958249519   25289.588151082302  -31820.182097077439    1033.892987745617 
  133000   -5569.915993734416   -5569.915993734416   25056.133584505762  -31820.545943497898    1194.496365257719 
  134000   -5546.633496586550   -5546.633496586550   25111.936488410247  -31817.759055157770    1159.189070160972 
  135000   -5517.807796264224   -5517.807796264224   25208.911323839275  -31820.258564381689    1093.539444278194 
  136000   -5612.675608628917   -5612.675608628917   25124.072498171303  -31824.761924984479    1088.013818184259 
  137000   -5511.171165316358   -5511.171165316358   25197.646710584559  -31817.738302874808    1108.920426973891 
  138000   -5558.008448576733   -5558.008448576733   25161.158769629408  -31820.305311614062    1101.138093407919 
  139000   -5507.049488619370   -5507.049488619370   25237.618584407253  -31816.305214987373    1071.637141960750 
  140000   -5570.064950479486   -5570.064950479486   25145.031208650515  -31823.634625296705    1108.538466166704 
  141000   -5554.245118897532   -5554.245118897532   25112.647023083842  -31819.924353002825    1153.032211021455 
  142000   -5494.289360540253   -5494.289360540253   25291.279008500867  -31818.547926202678    1032.979557161559 
  143000   -5524.687822478634   -5524.687822478634   25174.835616176490  -31821.862463480218    1122.339024825094 
  144000   -5550.698888541869   -5550.698888541869   25123.642811557067  -31823.263770770987    1148.922070672046 
  145000   -5563.135768507182   -5563.135768507182   25221.028551949574  -31816.677057172805    1032.512736716050 
  146000   -5501.452006414103   -5501.452006414103   25208.367691682524  -31814.926199083413    1105.106500986786 
  147000   -5540.534257867443   -5540.534257867443   25132.478632665538  -31819.778804153229    1146.765913620249 
  148000   -5625.044818536942   -5625.044818536942   25079.916868621280  -31820.355519294782    1115.393832136565 
  149000   -5487.237189525105   -5487.237189525105   25278.261129964500  -31819.145905913843    1053.647586424240 
  150000   -5467.574737365270   -5467.574737365270   25250.031073257654  -31820.252382451930    1102.646571829006 
  151000   -5533.226867199544   -5533.226867199544   25205.906294074717  -31819.533952243306    1080.400790969048 
  152000   -5551.899828453887   -5551.899828453887   25089.892180714036  -31822.076921506577    1180.284912338660 
  153000   -5491.448847216416   -5491.448847216416   25253.002786670542  -31820.976718529928    1076.525084642971 
  154000   -5523.707945420574   -5523.707945420574   25199.637993020893  -31819.407318653844    1096.061380212373 
  155000   -5512.736159730815   -5512.736159730815   25258.111217577385  -31817.090473836641    1046.243096528442 
  156000   -5501.296985945501   -5501.296985945501   25122.229825998911  -31816.931946778113    1193.405134833703 
  157000   -5495.531125572648   -5495.531125572648   25287.476534341218  -31821.172740791364    1038.165080877495 
  158000   -5530.700413042323   -5530.700413042323   25173.676100521472  -31816.950574402559    1112.574060838764 
  159000   -5534.960346319702   -5534.960346319702   25202.798075289153  -31815.659189634058    1077.900768025207 
  160000   -5615.200513568085   -5615.200513568085   25024.565153775682  -31824.159170809380    1184.393503465616 
  161000   -5567.319185169061   -5567.319185169061   25132.270516957411  -31823.420115521596    1123.830413395122 
  162000   -5554.105775544871   -5554.105775544871   25140.255701156759  -31816.797087971408    1122.435611269776 
  163000   -5573.283850094951   -5573.283850094951   25192.305911157047  -31821.387942540576    1055.798181288578 
  164000   -5572.828046293569   -5572.828046293569   25182.629169965672  -31819.553216190645    1064.095999931401 
  165000   -5499.642758536986   -5499.642758536986   25282.012967848219  -31823.147169625696    1041.491443240495 
  166000   -5569.193348130604   -5569.193348130604   25190.494238938656  -31822.400790412532    1062.713203343274 
  167000   -5526.386640503802   -5526.386640503802   25219.937606123131  -31818.530280605813    1072.206033978877 
  168000   -5478.929220717171   -5478.929220717171   25275.474541665753  -31820.853156620382    1066.449394237458 
  169000   -5522.765654073068   -5522.765654073068   25209.212271341770  -31817.299815661136    1085.321890246300 
  170000   -5557.354087425705   -5557.354087425705   25107.565580861938  -31817.119025435084    1152.199357147436 
  171000   -5501.547563401306   -5501.547563401306   25232.744932039532  -31815.840817149357    1081.548321708522 
  172000   -5508.012115285957   -5508.012115285957   25193.524635814319  -31814.875013476216    1113.338262375937 
  173000   -5561.149103077460   -5561.149103077460   25139.436270846305  -31819.793367559945    1119.207993636184 
  174000   -5507.589803068960   -5507.589803068960   25196.679580984473  -31816.467889554526    1112.198505501093 
  175000   -5532.097018707329   -5532.097018707329   25212.962584127410  -31819.700685882552    1074.641083047816 
  176000   -5615.916719740791   -5615.916719740791   25102.573674233441  -31819.940246904742    1101.449852930511 
  177000   -5572.078662164771   -5572.078662164771   25135.098982308045  -31821.648148395179    1114.470503922361 
  178000   -5557.024325535960   -5557.024325535960   25183.201787232036  -31819.385374236255    1079.159261468259 
  179000   -5525.555208084705   -5525.555208084705   25134.987694730949  -31819.584700239866    1159.041797424210 
  180000   -5429.682135048057   -5429.682135048057   25351.452615291855  -31816.790445986717    1035.655695646808 
  181000   -5466.993716904024   -5466.993716904024   25285.476969145318  -31819.862322761564    1067.391636712219 
  182000   -5492.784066153978   -5492.784066153978   25285.922124010271  -31818.962292407650    1040.256102243400 
  183000   -5543.419952399381   -5543.419952399381   25181.452618505136  -31821.667659108622    1096.795088204105 
  184000   -5605.585532914181   -5605.585532914181   25135.484490907460  -31819.035249385630    1077.965225563996 
  185000   -5478.612569411784   -5478.612569411784   25341.857348847254  -31819.190575868357     998.720657609326 
  186000   -5543.033591179872   -5543.033591179872   25208.154032006776  -31818.686515324673    1067.498892138025 
  187000   -5500.132416144268   -5500.132416144268   25131.552348373058  -31817.279786546533    1185.595022029209 
  188000   -5568.205362373774   -5568.205362373774   25152.937197087784  -31818.230257408992    1097.087697947436 
  189000   -5513.488801201340   -5513.488801201340   25221.213205408858  -31821.021849127155    1086.319842516960 
  190000   -5492.289683732939   -5492.289683732939   25210.876264638202  -31818.586522335088    1115.420573963952 
  191000   -5520.851497776242   -5520.851497776242   25198.587355942676  -31816.897242549840    1097.458388830926 
  192000   -5539.527941912027   -5539.527941912027   25165.309197332586  -31820.240833448850    1115.403694204235 
  193000   -5532.674660928857   -5532.674660928857   25192.193112758599  -31819.838519909888    1094.970746222434 
  194000   -5520.627668285255   -5520.627668285255   25246.998247952506  -31821.697832435802    1054.071916198039 
  195000   -5541.010058098487   -5541.010058098487   25182.344595257477  -31819.174172760442    1095.819519404483 
  196000   -5553.139355063860   -5553.139355063860   25072.049795364081  -31819.465803114224    1194.276652686280 
  197000   -5509.708439046673   -5509.708439046673   25171.588722957677  -31817.739483335419    1136.442321331070 
  198000   -5465.762861568368   -5465.762861568368   25270.998065884749  -31816.819356808563    1080.058429355446 
  199000   -5497.535145322778   -5497.535145322778   25236.929497237907  -31821.199666672379    1086.735024111699 
  200000   -5487.024805461951   -5487.024805461951   25217.025847556433  -31818.608259909648    1114.557606891262 
  201000   -5528.357235367177   -5528.357235367177   25149.982482698535  -31819.282259987944    1140.942541922232 
  202000   -5561.276651311149   -5561.276651311149   25118.465649622980  -31822.164306397397    1142.422005463266 
  203000   -5530.527792010926   -5530.527792010926   25212.337557850868  -31819.276591600206    1076.411241738412 
  204000   -5526.947572830497   -5526.947572830497   25199.204091470823  -31821.840395246611    1095.688730945290 
  205000   -5505.708422493142   -5505.708422493142   25214.891932847393  -31814.772133494236    1094.171778153706 
  206000   -5488.831435249031   -5488.831435249031   25216.686311813242  -31819.029718518745    1113.511971456471 
  207000   -5477.465750757270   -5477.465750757270   25273.749373636711  -31819.510610418423    1068.295486024447 
  208000   -5517.564498518685   -5517.564498518685   25206.243711803414  -31818.869027542645    1095.060817220543 
  209000   -5570.360666194530   -5570.360666194530   25143.773783291930  -31820.375539781242    1106.241090294784 
  210000   -5490.715272173849   -5490.715272173849   25225.807479214829  -31813.959913372910    1097.437161984234 
  211000   -5564.342299965916   -5564.342299965916   25079.107085615295  -31820.391305356348    1176.941919775136 
  212000   -5466.028358397933   -5466.028358397933   25268.533906687189  -31817.478228330809    1082.915963245684 
  213000   -5498.610764211615   -5498.610764211615   25242.070282376302  -31820.454050626762    1079.773004038844 
  214000   -5553.662249633537   -5553.662249633537   25174.081955047390  -31819.991173344533    1092.246968663606 
  215000   -5413.128311189346   -5413.128311189346   25335.789595761242  -31821.406665747385    1072.488758796794 
  216000   -5536.666139277520   -5536.666139277520   25239.263123552650  -31822.784973310805    1046.855710480638 
  217000   -5542.327180549255   -5542.327180549255   25200.947218693982  -31818.700431729812    1075.426032486576 
  218000   -5536.755940289786   -5536.755940289786   25168.523526191475  -31822.412926523732    1117.133460042472 
  219000   -5579.166613839356   -5579.166613839356   25154.306568079770  -31819.754553832903    1086.281371913778 
  220000   -5457.509084165387   -5457.509084165387   25314.759892013604  -31817.042830085389    1044.773853906399 
  221000   -5505.672540048923   -5505.672540048923   25225.950749428179  -31816.292319420092    1084.669029942994 
  222000   -5539.165976588058   -5539.165976588058   25180.975334409446  -31818.075069715422    1097.933758717920 
  223000   -5525.700130744048   -5525.700130744048   25177.659436969050  -31822.821211069542    1119.461643356440 
  224000   -5545.156573878598   -5545.156573878598   25135.519758730858  -31817.194493584662    1136.518160975209 
  225000   -5577.329103963028   -5577.329103963028   25175.298648241867  -31823.444651770194    1070.816899565300 
  226000   -5553.558273947398   -5553.558273947398   25099.922239626780  -31822.018444899135    1168.537931324959 
  227000   -5541.653116070251   -5541.653116070251   25119.720767563067  -31817.832842272805    1156.458958639489 
  228000   -5509.201151180005   -5509.201151180005   25245.655123387121  -31823.827486607628    1068.971212040501 
  229000   -5468.794176574374   -5468.794176574374   25257.077916984148  -31814.535249903984    1088.663156345461 
  230000   -5519.067925878910   -5519.067925878910   25214.947838085689  -31819.037473087323    1085.021709122725 
  231000   -5511.564917463904   -5511.564917463904   25272.219236741636  -31819.637129146278    1035.852974940739 
  232000   -5492.846487271552   -5492.846487271552   25265.602383972950  -31819.900262284074    1061.451391039570 
  233000   -5527.957435402655   -5527.957435402655   25246.360216297693  -31821.267140624230    1046.949488923881 
  234000   -5521.461247173778   -5521.461247173778   25161.215132763726  -31816.211951129368    1133.535571191862 
  235000   -5494.391849075080   -5494.391849075080   25270.133571384224  -31821.345497010378    1056.820076551076 
  236000   -5532.599143742715   -5532.599143742715   25229.216769175524  -31822.476279217350    1060.660366299114 
  237000   -5515.200997965629   -5515.200997965629   25246.222525543995  -31820.369771827121    1058.946248317496 
  238000   -5529.473719274407   -5529.473719274407   25291.522954948319  -31821.613483939349    1000.616809716626 
  239000   -5549.561257524481   -5549.561257524481   25134.992051110388  -31815.730151408377    1131.176842773512 
  240000   -5497.270329818377   -5497.270329818377   25258.241341377230  -31815.494516245395    1059.982845049789 
  241000   -5508.797774336581   -5508.797774336581   25237.791741273697  -31816.620030263552    1070.030514653273 
  242000   -5492.746015050656   -5492.746015050656   25249.993250465730  -31819.568246261129    1076.828980744743 
  243000   -5489.333495172428   -5489.333495172428   25241.711736315978  -31818.536188842114    1087.490957353707 
  244000   -5547.501747364349   -5547.501747364349   25102.782575335001  -31822.892222151524    1172.607899452175 
  245000   -5553.073891090175   -5553.073891090175   25111.653929989021  -31820.382598727974    1155.654777648779 
  246000   -5510.832544238521   -5510.832544238521   25228.501071275059  -31821.628630247342    1082.295014733760 
  247000   -5530.303918946698   -5530.303918946698   25197.771488548682  -31820.267740681305    1092.192333185924 
  248000   -5590.766331224935   -5590.766331224935   25118.982759285886  -31822.027785637147    1112.278695126326 
  249000   -5515.331901565467   -5515.331901565467   25214.602271246738  -31821.136194312632    1091.202021500423 
  250000   -5544.838922207993   -5544.838922207993   25173.386689024086  -31821.854181133156    1103.628569901076 
  251000   -5533.804168041701   -5533.804168041701   25130.090502326544  -31816.883452944050    1152.988782575806 
  252000   -5532.441025203883   -5532.441025203883   25248.455172898073  -31823.964002832545    1043.067804730589 
  253000   -5569.873738939295   -5569.873738939295   25163.870017761379  -31822.341685168507    1088.597928467829 
  254000   -5586.244014019652   -5586.244014019652   25089.226997258786  -31818.079377737336    1142.608366458900 
  255000   -5512.483453790715   -5512.483453790715   25215.667366614285  -31819.173636510244    1091.022816105245 
  256000   -5547.043795028581   -5547.043795028581   25143.086720848645  -31816.174615841661    1126.044099964435 
  257000   -5546.669228329865   -5546.669228329865   25171.055054384229  -31822.427417712035    1104.703134997942 
  258000   -5515.645428662658   -5515.645428662658   25224.258597777713  -31822.316589883565    1082.412563443196 
  259000   -5591.887655732688   -5591.887655732688   25117.495877374993  -31816.025367402428    1106.641834294748 
  260000   -5532.236667837780   -5532.236667837780   25183.885888303266  -31819.775287174638    1103.652731033593 
  261000   -5552.903000389877   -5552.903000389877   25078.955749618690  -31820.271115225729    1188.412365217164 
  262000   -5540.768725157395   -5540.768725157395   25094.332678500145  -31817.351520271604    1182.250116614068 
  263000   -5549.756274621377   -5549.756274621377   25181.464374459625  -31821.358148680945    1090.137499599943 
  264000   -5522.073008217005   -5522.073008217005   25198.186633444537  -31821.091637576043    1100.831995914503 
  265000   -5502.913893864250   -5502.913893864250   25211.980756206169  -31821.216056388068    1106.321406317655 
  266000   -5528.522780371783   -5528.522780371783   25193.262370468001  -31822.780047216405    1100.994896376617 
  267000   -5516.059667112175   -5516.059667112175   25152.723105605459  -31820.677885697307    1151.895112979670 
  268000   -5534.217217483081   -5534.217217483081   25170.074624240136  -31822.490285748561    1118.198444025347 
  269000   -5587.355138759900   -5587.355138759900   25102.016266104700  -31819.441076895244    1130.069672030649 
  270000   -5557.654527776624   -5557.654527776624   25215.724229182157  -31817.722441366121    1044.343684407343 
  271000   -5515.752295547085   -5515.752295547085   25207.803890583516  -31819.504279615161    1095.948093484560 
  272000   -5564.520655040731   -5564.520655040731   25199.637647852120  -31824.258013516752    1060.099710623903 
  273000   -5517.223923984773   -5517.223923984773   25178.732791721661  -31820.207273985758    1124.250558279321 
  274000   -5549.661327040940   -5549.661327040940   25157.816004334676  -31819.791243141615    1112.313911765998 
  275000   -5422.946863460111   -5422.946863460111   25311.132718382160  -31818.135266198424    1084.055684356157 
  276000   -5538.883242843774   -5538.883242843774   25239.680376058957  -31818.957488926673    1040.393870023943 
  277000   -5514.058296291034   -5514.058296291034   25236.644126123829  -31816.962922580788    1066.260500165926 
  278000   -5554.346871123351   -5554.346871123351   25154.280921474467  -31823.048769031451    1114.420976433636 
  279000   -5572.046227313687   -5572.046227313687   25117.632926198414  -31819.666848246699    1129.987694734602 
  280000   -5574.233647068701   -5574.233647068701   25141.876168497409  -31820.763353567003    1104.653538000897 
  281000   -5507.961631842092   -5507.961631842092   25215.853548799358  -31816.054899031751    1092.239718390296 
  282000   -5558.430361131072   -5558.430361131072   25168.091702362239  -31822.777028855511    1096.254965362201 
  283000   -5437.137304727861   -5437.137304727861   25343.606765083732  -31820.771572026388    1040.027502214797 
  284000   -5515.663954621486   -5515.663954621486   25272.923110899486  -31825.401296156320    1036.814230635351 
  285000   -5520.858023346427   -5520.858023346427   25190.419949410931  -31816.568980877146    1105.291008119785 
  286000   -5534.061174724629   -5534.061174724629   25271.367362608573  -31821.160863155761    1015.732325822559 
  287000   -5590.306856725376   -5590.306856725376   25152.296245937374  -31821.840173715431    1079.237071052684 
  288000   -5549.003712550311   -5549.003712550311   25187.088202062627  -31819.638992718192    1083.547078105254 
  289000   -5578.017521826539   -5578.017521826539   25160.700120335474  -31818.292007022650    1079.574364860634 
  290000   -5539.518595634006   -5539.518595634006   25159.816062492562  -31817.638838186765    1118.304180060197 
  291000   -5486.998699839613   -5486.998699839613   25276.729638618515  -31819.574438928277    1055.846100470150 
  292000   -5567.731608491045   -5567.731608491045   25206.590617380418  -31820.316189742556    1045.993963871095 
  293000   -5558.653536240196   -5558.653536240196   25107.863747225143  -31820.990820304822    1154.473536839480 
  294000   -5582.773476078852   -5582.773476078852   25131.932680737089  -31821.574382741535    1106.868225925595 
  295000   -5476.542159793538   -5476.542159793538   25294.300719722953  -31819.702203650802    1048.859324134314 
  296000   -5582.541717445245   -5582.541717445245   25134.434087608075  -31819.963528496792    1102.987723443472 
  297000   -5497.940945689497   -5497.940945689497   25223.066756731852  -31818.958951241166    1097.951248819820 
  298000   -5540.397928278999   -5540.397928278999   25172.026588826684  -31817.563018480050    1105.138501374372 
  299000   -5607.611832004575   -5607.611832004575   25110.124011702595  -31824.822706299925    1107.086862592756 
  300000   -5496.881215034609   -5496.881215034609   25270.137370154818  -31814.820555737304    1047.801970547870 
  301000   -5565.606802192069   -5565.606802192069   25145.997842048455  -31819.333608729779    1107.728964489253 
  302000   -5536.649274020972   -5536.649274020972   25151.138673178779  -31819.704750594901    1131.916803395148 
  303000   -5583.956720022550   -5583.956720022550   25100.447964765721  -31822.132166506875    1137.727481718600 
  304000   -5519.149752825615   -5519.149752825615   25199.074307934286  -31822.897014738712    1104.672953978810 
  305000   -5502.420833388886   -5502.420833388886   25273.101434098742  -31816.742838137750    1041.220570650125 
  306000   -5512.280553123939   -5512.280553123939   25244.299168690719  -31817.132838335438    1060.553116520776 
  307000   -5457.508161327387   -5457.508161327387   25301.619020080725  -31814.768100129215    1055.640918721100 
  308000   -5525.069767297053   -5525.069767297053   25193.110707738113  -31818.367025604181    1100.186550569014 
  309000   -5538.765913374809   -5538.765913374809   25236.150557992900  -31819.677478184542    1044.761006816835 
  310000   -5502.986274090395   -5502.986274090395   25210.155535362246  -31822.096954849370    1108.955145396733 
  311000   -5563.131731785641   -5563.131731785641   25145.079300236997  -31820.003511761195    1111.792479738558 
  312000   -5516.387662778747   -5516.387662778747   25246.189245774658  -31819.355388538763    1056.778479985353 
  313000   -5542.357779973740   -5542.357779973740   25081.735789214043  -31818.873968197044    1194.780399009259 
  314000   -5577.883328825796   -5577.883328825796   25136.707130454637  -31823.329424797499    1108.738965517067 
  315000   -5548.007912804223   -5548.007912804223   25223.662044750337  -31819.786497348465    1048.116539793905 
  316000   -5546.748398706390   -5546.748398706390   25176.928618911676  -31820.483665183918    1096.806647565847 
  317000   -5527.745033134688   -5527.745033134688   25268.421044492414  -31823.229265989230    1027.063188362132 
  318000   -5541.047849913753   -5541.047849913753   25201.327818858743  -31819.353619320060    1076.977950547563 
  319000   -5571.092248174922   -5571.092248174922   25122.699194851943  -31820.980051746901    1127.188608720035 
  320000   -5523.091894356821   -5523.091894356821   25206.347762488265  -31817.641687975443    1088.202031130359 
  321000   -5426.366779833261   -5426.366779833261   25344.312109212347  -31817.051133327008    1046.372244281401 
  322000   -5511.226561528114   -5511.226561528114   25225.545609652705  -31820.147374956498    1083.375203775681 
  323000   -5504.276374076169   -5504.276374076169   25285.746461512492  -31817.487117040706    1027.464281452046 
  324000   -5502.617019291818   -5502.617019291818   25209.753386369219  -31818.290820594957    1105.920414933923 
  325000   -5517.041497966064   -5517.041497966064   25168.988514395278  -31817.017388074564    1130.987375713221 
  326000   -5525.746246375646   -5525.746246375646   25248.167297053624  -31817.892927790410    1043.979384361136 
  327000   -5599.619995321616   -5599.619995321616   25097.043020113302  -31821.801758661986    1125.138743227067 
  328000   -5525.782958224143   -5525.782958224143   25244.081440872789  -31819.196163625598    1049.331764528669 
  329000   -5541.461944391114   -5541.461944391114   25247.008963071963  -31820.067876743251    1031.596969280177 
  330000   -5535.645776673071   -5535.645776673071   25165.533315571818  -31818.052480859584    1116.873388614692 
  331000   -5557.352110397922   -5557.352110397922   25176.645949111353  -31821.990376466114    1087.992316956836 
  332000   -5517.254083616892   -5517.254083616892   25220.843892537432  -31817.084638377659    1078.986662223336 
  333000   -5566.267499218498   -5566.267499218498   25166.610741693457  -31824.314922649435    1091.436681737481 
  334000   -5550.677688081982   -5550.677688081982   25224.409693423888  -31820.526548133068    1045.439166627198 
  335000   -5496.966434164162   -5496.966434164162   25348.106563844398  -31823.128399971149     978.055401962590 
  336000   -5487.751967154920   -5487.751967154920   25281.392817274133  -31814.928743910863    1045.783959481809 
  337000   -5524.011518933530   -5524.011518933530   25224.637695670222  -31816.767056789431    1068.117842185683 
  338000   -5492.371626986911   -5492.371626986911   25174.966984779145  -31819.616666438706    1152.278054672648 
  339000   -5565.826316269271   -5565.826316269271   25105.083248082126  -31818.073962888713    1147.164398537320 
  340000   -5529.420072305886   -5529.420072305886   25179.624153476077  -31816.219665848173    1107.175440066211 
  341000   -5512.407130149557   -5512.407130149557   25241.687254774813  -31819.952550326954    1065.858165402587 
  342000   -5533.230341173265   -5533.230341173265   25243.371044337215  -31816.317123937915    1039.715738427435 
  343000   -5486.013463916606   -5486.013463916606   25274.561226027035  -31819.810884866893    1059.236194923253 
  344000   -5528.457146308527   -5528.457146308527   25197.833119279941  -31821.861002974685    1095.570737386214 
  345000   -5494.556832465281   -5494.556832465281   25245.188648941024  -31818.490659663457    1078.745178257155 
  346000   -5547.923394649108   -5547.923394649108   25119.994579529419  -31819.459844639321    1151.541870460800 
  347000   -5608.833290974319   -5608.833290974319   25090.869231787678  -31821.285945668275    1121.583422906275 
  348000   -5591.682916769139   -5591.682916769139   25113.566685165333  -31820.567672439334    1115.318070504855 
  349000   -5553.683809536156   -5553.683809536156   25191.025070511809  -31824.634564789838    1079.925684741875 
  350000   -5493.446020830714   -5493.446020830714   25242.706413772172  -31823.228814932307    1087.076380329418 
  351000   -5570.402550673283   -5570.402550673283   25164.397477732557  -31822.575858854976    1087.775830449138 
  352000   -5519.217332916589   -5519.217332916589   25182.157508860575  -31815.807546989741    1114.432705212577 
  353000   -5566.027661211541   -5566.027661211541   25146.267293549059  -31821.717241581187    1109.422286820587 
  354000   -5555.839187257901   -5555.839187257901   25174.363146592928  -31822.481538980199    1092.279205129365 
  355000   -5502.467541833372   -5502.467541833372   25194.095926762238  -31819.282571140295    1122.719102544679 
  356000   -5591.772322128865   -5591.772322128865   25119.717899164138  -31819.130949632850    1107.640728339855 
  357000   -5570.336473158492   -5570.336473158492   25147.100632099657  -31822.317311777464    1104.880206519320 
  358000   -5544.203345694561   -5544.203345694561   25149.646779628914  -31818.204635509952    1124.354510186472 
  359000   -5530.109457231505   -5530.109457231505   25186.242844559965  -31818.171141809034    1101.818840017564 
  360000   -5495.270494352291   -5495.270494352291   25172.151265067434  -31817.419793012003    1149.998033592272 
  361000   -5484.143527156681   -5484.143527156681   25195.587009125607  -31819.749622244701    1140.019085962412 
  362000   -5529.018316179307   -5529.018316179307   25159.653425941004  -31817.722991593739    1129.051249473430 
  363000   -5489.427509660600   -5489.427509660600   25216.254154193768  -31821.472282786221    1115.790618931850 
  364000   -5523.466488296515   -5523.466488296515   25244.038202661221  -31817.004920694642    1049.500229736907 
  365000   -5543.414868431231   -5543.414868431231   25163.651887395150  -31819.952200339616    1112.885444513237 
  366000   -5475.202000780024   -5475.202000780024   25220.703352100183  -31818.844887389401    1122.939534509192 
  367000   -5538.835989959611   -5538.835989959611   25166.378601218930  -31825.049302190149    1119.834711011609 
  368000   -5495.025436038100   -5495.025436038100   25190.381566899006  -31819.213583669334    1133.806580732235 
  369000   -5553.021337817168   -5553.021337817168   25199.412341190386  -31817.851720638158    1065.418041630606 
  370000   -5495.517231261594   -5495.517231261594   25177.294900785113  -31819.861764228062    1147.049632181359 
  371000   -5537.207576746139   -5537.207576746139   25251.197782759795  -31822.721647909890    1034.316288403959 
  372000   -5478.060563747287   -5478.060563747287   25260.285094381470  -31814.547648560638    1076.201990431877 
  373000   -5489.768348656762   -5489.768348656762   25293.202677446920  -31819.850869719681    1036.879843616005 
  374000   -5494.924940759825   -5494.924940759825   25200.376529749439  -31819.172603404106    1123.871132894848 
  375000   -5569.352594304011   -5569.352594304011   25142.750570265889  -31820.857386317879    1108.754221747981 
  376000   -5543.669445323198   -5543.669445323198   25178.574191497042  -31821.807564630260    1099.563927810018 
  377000   -5543.831329464807   -5543.831329464807   25155.846142124377  -31817.097925239967    1117.420453650782 
  378000   -5473.535757880047   -5473.535757880047   25345.524567331660  -31820.781686112023    1001.721360900315 
  379000   -5485.903184018418   -5485.903184018418   25179.932013589878  -31814.742395216526    1148.907197608228 
  380000   -5511.137646452229   -5511.137646452229   25180.407879787985  -31822.020275164366    1130.474748924152 
  381000   -5461.853947424621   -5461.853947424621   25261.401451898102  -31820.776037174106    1097.520637851384 
  382000   -5472.671032685332   -5472.671032685332   25252.809074972720  -31818.882264396714    1093.402156738664 
  383000   -5459.716250256188   -5459.716250256188   25279.341748785962  -31819.452688312627    1080.394689270476 
  384000   -5592.865097667589   -5592.865097667589   25113.972815671557  -31821.327443437509    1114.489530098364 
  385000   -5516.360115077016   -5516.360115077016   25201.019599618929  -31819.062306821997    1101.682592126053 
  386000   -5547.191470208149   -5547.191470208149   25100.017553160120  -31818.508222631834    1171.299199263563 
  387000   -5567.062126930265   -5567.062126930265   25216.437522802145  -31819.507742816066    1036.008093083655 
  388000   -5550.178385847717   -5550.178385847717   25144.046578895170  -31819.813204791324    1125.588240048442 
  389000   -5570.374118931075   -5570.374118931075   25190.814367414132  -31826.137581917803    1064.949095572597 
  390000   -5597.847366951679   -5597.847366951679   25145.943892025702  -31821.557183681936    1077.765924704553 
  391000   -5524.237292635033   -5524.237292635033   25171.813831276697  -31817.026022025300    1120.974898113569 
  392000   -5525.524586400537   -5525.524586400537   25260.007301061705  -31813.940291120223    1028.408403657981 
  393000   -5578.114005147803   -5578.114005147803   25156.034558797084  -31822.332103777131    1088.183539832246 
  394000   -5565.198527665783   -5565.198527665783   25124.774030144337  -31824.472646894908    1134.500089084785 
  395000   -5486.580219834537   -5486.580219834537   25239.116706294044  -31821.476424614775    1095.779498486198 
  396000   -5481.714149266500   -5481.714149266500   25269.686902609141  -31817.461542847148    1066.060490971509 
  397000   -5531.802891106319   -5531.802891106319   25246.059489738313  -31821.630046653652    1043.767665809024 
  398000   -5507.177633241772   -5507.177633241772   25264.078428528781  -31821.503622069038    1050.247560298488 
  399000   -5555.689119095456   -5555.689119095456   25166.386199521523  -31821.429776048139    1099.354457431162 
  400000   -5514.819636659657   -5514.819636659657   25262.210980534517  -31821.988032800258    1044.957415606080 
  401000   -5504.709319980408   -5504.709319980408   25230.086022230040  -31816.593469696811    1081.798127486360 
  402000   -5489.206665845781   -5489.206665845781   25241.528956044560  -31819.352092464494    1088.616470574154 
  403000   -5585.090746967704   -5585.090746967704   25119.522067957325  -31821.190114591271    1116.577299666238 
  404000   -5492.064980342508   -5492.064980342508   25272.864740179401  -31816.859888782721    1051.930168260811 
  405000   -5523.106734264133   -5523.106734264133   25168.343717957156  -31818.780247329421    1127.329795108136 
  406000   -5491.305090791961   -5491.305090791961   25240.530618071862  -31820.067269436222    1088.231560572404 
  407000   -5455.420601488368   -5455.420601488368   25324.200441875873  -31817.954569594891    1038.333526230650 
  408000   -5488.891189639526   -5488.891189639526   25234.226970087118  -31818.686560039849    1095.568400313209 
  409000   -5533.072923111402   -5533.072923111402   25195.259708663896  -31820.448995208157    1092.116363432860 
  410000   -5516.726246868548   -5516.726246868548   25131.481784842119  -31813.512770902129    1165.304739191466 
  411000   -5539.201299230685   -5539.201299230685   25166.812991666295  -31820.722683498148    1114.708392601176 
  412000   -5488.701004074377   -5488.701004074377   25255.899421346330  -31812.919094436089    1068.318669015378 
  413000   -5541.947953456642   -5541.947953456642   25240.352293552482  -31823.221133008454    1040.920885999335 
  414000   -5559.902931010714   -5559.902931010714   25168.268634486263  -31820.287660927166    1092.116095430191 
  415000   -5561.008155335872   -5561.008155335872   25148.843429197907  -31826.114795233814    1116.263210700036 
  416000   -5544.272718177523   -5544.272718177523   25182.520419156648  -31818.591348847796    1091.798211513629 
  417000   -5473.432431815443   -5473.432431815443   25219.157094687420  -31817.806042925684    1125.216516422826 
  418000   -5495.391198806032   -5495.391198806032   25259.163235758708  -31819.887094988637    1065.332660423892 
  419000   -5494.703424746294   -5494.703424746294   25242.351484193157  -31814.575101631373    1077.520192691922 
  420000   -5493.857275298018   -5493.857275298018   25207.777398643299  -31819.349139925660    1117.714465984349 
  421000   -5535.743061372701   -5535.743061372701   25171.466032300741  -31817.477773019895    1110.268679346452 
  422000   -5557.088126311563   -5557.088126311563   25199.799013723667  -31819.875531709615    1062.988391674386 
  423000   -5503.557804440221   -5503.557804440221   25267.470836701814  -31819.368637751191    1048.339996609157 
  424000   -5540.552231987807   -5540.552231987807   25140.381881258923  -31819.492573458418    1138.558460211684 
  425000   -5506.338943627619   -5506.338943627619   25214.652454758027  -31817.611053810942    1096.619655425297 
  426000   -5575.168649884970   -5575.168649884970   25107.410827156429  -31822.437261526993    1139.857784485593 
  427000   -5562.855156522684   -5562.855156522684   25144.000246276737  -31817.611005680013    1110.755602880595 
  428000   -5567.519458015890   -5567.519458015890   25137.770082769192  -31820.717797358426    1115.428256573343 
  429000   -5606.709758011300   -5606.709758011300   25079.561953056582  -31817.713611652907    1131.441900585026 
  430000   -5549.080797725372   -5549.080797725372   25184.181981248134  -31825.096932516575    1091.834153543067 
  431000   -5480.874252880996   -5480.874252880996   25322.429778146823  -31819.469839538076    1016.165808510254 
  432000   -5571.405230306904   -5571.405230306904   25127.470042693501  -31820.611972374201    1121.736699373798 
  433000   -5517.858543376333   -5517.858543376333   25218.678408081629  -31817.764564316156    1081.227612858193 
  434000   -5525.596790715907   -5525.596790715907   25237.321122875375  -31821.070990685879    1058.153077094596 
  435000   -5541.364200143205   -5541.364200143205   25130.934663534179  -31819.300244299706    1147.001380622319 
  436000   -5550.507225145062   -5550.507225145062   25157.404307896053  -31819.371115709968    1111.459582668856 
  437000   -5545.704276600260   -5545.704276600260   25141.656648689452  -31815.605000913954    1128.244075624242 
  438000   -5550.555581958106   -5550.555581958106   25176.482310803771  -31819.265064191553    1092.227171429674 
  439000   -5555.657168612895   -5555.657168612895   25203.119577784360  -31822.119720332812    1063.342973935559 
  440000   -5477.407161379844   -5477.407161379844   25234.097169107612  -31814.932670381582    1103.428339894125 
  441000   -5522.304452294084   -5522.304452294084   25181.163159716991  -31816.003355499095    1112.535743488018 
  442000   -5505.668912288420   -5505.668912288420   25200.885767968517  -31814.053994724323    1107.499314467392 
  443000   -5546.155538295763   -5546.155538295763   25243.801093087532  -31815.307649055212    1025.351017671910 
  444000   -5537.068218557903   -5537.068218557903   25216.968121080441  -31820.044644804784    1066.008305166445 
  445000   -5530.059606292289   -5530.059606292289   25188.550987003313  -31817.054987272651    1098.444393977053 
  446000   -5499.382410494847   -5499.382410494847   25268.148773832494  -31816.649221133019    1049.118036805681 
  447000   -5513.882008897730   -5513.882008897730   25226.426776756278  -31818.791493177865    1078.482707523852 
  448000   -5544.914579154891   -5544.914579154891   25199.838256340372  -31823.015433198801    1078.262597703538 
  449000   -5519.578438285342   -5519.578438285342   25200.026122360159  -31819.031740992028    1099.427180346528 
  450000   -5498.773840585418   -5498.773840585418   25231.237905662652  -31814.604795190415    1084.593048942344 
  451000   -5485.369287944795   -5485.369287944795   25265.896797949365  -31820.494575345809    1069.228489451645 
  452000   -5558.545755942039   -5558.545755942039   25199.837509147939  -31820.889775739844    1062.506510649870 
  453000   -5507.072759508526   -5507.072759508526   25272.456650138218  -31822.085451678166    1042.556042031421 
  454000   -5517.473682627544   -5517.473682627544   25174.705194506183  -31816.622921016169    1124.444043882443 
  455000   -5520.143817268523   -5520.143817268523   25241.164677343950  -31818.023375038309    1056.714880425835 
  456000   -5513.276034827242   -5513.276034827242   25202.010357282903  -31816.282923560302    1100.996531450159 
  457000   -5543.715967102838   -5543.715967102838   25116.540995611096  -31820.593469018109    1160.336506304177 
  458000   -5533.725280984032   -5533.725280984032   25115.901406761226  -31819.588331368705    1169.961643623448 
  459000   -5585.563350092441   -5585.563350092441   25089.094621561446  -31820.291585617342    1145.633613963449 
  460000   -5563.210120753840   -5563.210120753840   25121.905015779579  -31820.230177020952    1135.115040487530 
  461000   -5519.698014089263   -5519.698014089263   25254.249405563773  -31819.306959863279    1045.359540210243 
  462000   -5585.920635878618   -5585.920635878618   25123.333766360371  -31817.306514174634    1108.052111935644 
  463000   -5530.355546368304   -5530.355546368304   25188.710295180001  -31820.445337855046    1101.379496306743 
  464000   -5541.386438122594   -5541.386438122594   25195.778608427339  -31816.312725234930    1079.147678684998 
  465000   -5535.506059187537   -5535.506059187537   25224.593092432166  -31817.673256949001    1057.574105329299 
  466000   -5545.890926462984   -5545.890926462984   25172.980207318513  -31819.160087167384    1100.288953385887 
  467000   -5543.829705005628   -5543.829705005628   25130.941775289110  -31822.267617670805    1147.496137376067 
  468000   -5511.112361809213   -5511.112361809213   25241.830596260708  -31820.159375490221    1067.216417420299 
  469000   -5541.519169054543   -5541.519169054543   25175.377701936777  -31821.649034366354    1104.752163375038 
  470000   -5567.312868899906   -5567.312868899906   25163.381789236715  -31820.938137594792    1090.243479458164 
  471000   -5563.328811681084   -5563.328811681084   25139.084327058998  -31820.537958364384    1118.124819624305 
  472000   -5514.613489614632   -5514.613489614632   25233.289099767695  -31817.833119271854    1069.930529889531 
  473000   -5532.383431603823   -5532.383431603823   25205.112450145469  -31816.992993553755    1079.497111804464 
  474000   -5511.248132098634   -5511.248132098634   25170.122218337572  -31822.007972499388    1140.637622063179 
  475000   -5473.123357527744   -5473.123357527744   25242.430096049276  -31819.918249672861    1104.364796095843 
  476000   -5513.313125310560   -5513.313125310560   25222.959706551563  -31818.775991945546    1082.503160083420 
  477000   -5483.560653309061   -5483.560653309061   25274.215929077287  -31816.138785409072    1058.362203022724 
  478000   -5509.680849734999   -5509.680849734999   25215.222257011763  -31817.483202822063    1092.580096075300 
  479000   -5511.714234356961   -5511.714234356961   25246.839098882403  -31820.063605015279    1061.510271775915 
  480000   -5526.961036657925   -5526.961036657925   25231.504994443680  -31822.813369988671    1064.347338887066 
  481000   -5492.433290059980   -5492.433290059980   25279.711923372568  -31819.682262660910    1047.537049228361 
  482000   -5582.774977223660   -5582.774977223660   25097.957469820903  -31823.160669397395    1142.428222352834 
  483000   -5575.107336101835   -5575.107336101835   25158.774969469163  -31819.525035787068    1085.642730216068 
  484000   -5549.693934986877   -5549.693934986877   25219.862995702468  -31824.587191379025    1055.030260689676 
  485000   -5580.679899706309   -5580.679899706309   25181.344858166478  -31818.138278199098    1056.113520326315 
  486000   -5556.438288178299   -5556.438288178299   25126.442853432520  -31816.919354670925    1134.038213060101 
  487000   -5518.759068177202   -5518.759068177202   25232.620941870697  -31822.178189965020    1070.798179917120 
  488000   -5565.820894229641   -5565.820894229641   25178.740288323002  -31816.717380169684    1072.156197617042 
  489000   -5535.442587677186   -5535.442587677186   25151.760843811036  -31816.582907843076    1129.379476354851 
  490000   -5502.186945174893   -5502.186945174893   25258.070074167634  -31815.188640662764    1054.931621320232 
  491000   -5479.403276512036   -5479.403276512036   25270.240326131905  -31823.595091755578    1073.951489111636 
  492000   -5520.614931368815   -5520.614931368815   25251.676310239891  -31819.734209333081    1047.442967724373 
  493000   -5534.350927045329   -5534.350927045329   25215.174214566567  -31823.966012803699    1074.440871191808 
  494000   -5519.414454602666   -5519.414454602666   25227.145327508806  -31819.103165967394    1072.543383855919 
  495000   -5589.005828735466   -5589.005828735466   25155.241188054220  -31822.881756661172    1078.634739871489 
  496000   -5527.568843403220   -5527.568843403220   25180.870382519206  -31824.643365592252    1116.204139669829 
  497000   -5558.279294206051   -5558.279294206051   25161.658268086467  -31818.943012803258    1099.005450510735 
  498000   -5586.361261396447   -5586.361261396447   25127.827714140862  -31814.348249683389    1100.159274146080 
  499000   -5574.307976061562   -5574.307976061562   25152.170635170663  -31821.372109084186    1094.893497851963 
  500000   -5611.609765301837   -5611.609765301837   25070.373214079707  -31822.122250511027    1140.139271129483 
  501000   -5549.713138558469   -5549.713138558469   25220.384917663596  -31819.896442795030    1049.798386572965 
  502000   -5558.673606269138   -5558.673606269138   25200.777132182084  -31818.858413625025    1059.407675173801 
  503000   -5522.821429529085   -5522.821429529085   25235.274458644129  -31819.335993533579    1061.240105360367 
  504000   -5527.495018542271   -5527.495018542271   25207.540555454994  -31818.948223946089    1083.912649948822 
  505000   -5550.874812784121   -5550.874812784121   25246.826215457597  -31817.337576378188    1019.636548136471 
  506000   -5543.017672043639   -5543.017672043639   25130.048001476171  -31821.250020324038    1148.184346804229 
  507000   -5519.478926253949   -5519.478926253949   25168.417290041500  -31821.633642462610    1133.737426167160 
  508000   -5568.494806080173   -5568.494806080173   25122.172929933229  -31818.462310586940    1127.794574573535 
  509000   -5484.073536238826   -5484.073536238826   25233.101460945785  -31817.444734458855    1100.269737274252 
  510000   -5509.988691708924   -5509.988691708924   25162.285088659046  -31814.804653061157    1142.530872693189 
  511000   -5504.029156802011   -5504.029156802011   25263.388327743283  -31818.478834627236    1051.061350081942 
  512000   -5435.789068844442   -5435.789068844442   25302.414754696474  -31814.401138063073    1076.197314522156 
  513000   -5477.211213296341   -5477.211213296341   25292.546908152330  -31820.752311398108    1050.994189949434 
  514000   -5513.198575100698   -5513.198575100698   25246.469216188507  -31819.528041793568    1059.860250504363 
  515000   -5528.182861097550   -5528.182861097550   25217.452266768392  -31817.046684293491    1071.411556427549 
  516000   -5513.621174895557   -5513.621174895557   25205.070990294527  -31820.559144664123    1101.866979474040 
  517000   -5574.046253365465   -5574.046253365465   25150.246658801683  -31821.038247579985    1096.745335412841 
  518000   -5539.570160515905   -5539.570160515905   25143.707515246624  -31823.214914289641    1139.937238527112 
  519000   -5536.253431229714   -5536.253431229714   25227.861350921346  -31818.518786316177    1054.404004165112 
  520000   -5543.609963181061   -5543.609963181061   25156.272975159845  -31821.611295517527    1121.728357176617 
  521000   -5504.184947536814   -5504.184947536814   25260.740817559927  -31820.093213147786    1055.167448051040 
  522000   -5577.133739094086   -5577.133739094086   25087.349010101614  -31822.314457234104    1157.831708038406 
  523000   -5544.958379287600   -5544.958379287600   25174.734119041615  -31819.001830387133    1099.309332057915 
  524000   -5482.900942935838   -5482.900942935838   25288.273145543419  -31815.410770778988    1044.236682299732 
  525000   -5526.779732488954   -5526.779732488954   25162.850628196033  -31814.744646519346    1125.114285834364 
  526000   -5492.374478088073   -5492.374478088073   25229.891213060422  -31818.154177859928    1095.888486711430 
  527000   -5572.011708615133   -5572.011708615133   25123.038155398404  -31821.464708868869    1126.414844855330 
  528000   -5441.592691987302   -5441.592691987302   25396.235805961202  -31819.819213575269     981.990715626767 
  529000   -5512.731548250144   -5512.731548250144   25226.096881260582  -31817.867362293473    1079.038932782744 
  530000   -5493.768416334809   -5493.768416334809   25298.235455162318  -31820.379193395354    1028.375321898230 
  531000   -5516.649918322277   -5516.649918322277   25245.580586904303  -31819.899095759156    1057.668590532574 
  532000   -5445.638158251830   -5445.638158251830   25361.230637576351  -31814.754188350937    1007.885392522757 
  533000   -5530.453112849289   -5530.453112849289   25216.771684453372  -31818.580935138794    1071.356137836130 
  534000   -5541.127788432706   -5541.127788432706   25193.935290325102  -31818.090059698552    1083.026980940744 
  535000   -5472.580221021071   -5472.580221021071   25250.522500269893  -31819.718525620483    1096.615804329515 
  536000   -5574.373691760597   -5574.373691760597   25163.326214231063  -31820.458456276738    1082.758550285077 
  537000   -5589.914526526234   -5589.914526526234   25130.889059712732  -31824.024786611466    1103.221200372496 
  538000   -5567.663520879261   -5567.663520879261   25234.826459474942  -31820.191183454794    1017.701203100597 
  539000   -5547.518497867983   -5547.518497867983   25240.843513952830  -31822.524538542559    1034.162526721746 
  540000   -5508.943927227825   -5508.943927227825   25255.414387375036  -31818.506431865913    1054.148117263057 
  541000   -5495.765929722900   -5495.765929722900   25268.222258643473  -31819.765417780189    1055.777229413814 
  542000   -5475.403158987665   -5475.403158987665   25299.691224761667  -31820.722192772952    1045.627809023619 
  543000   -5542.390338013505   -5542.390338013505   25130.864494384976  -31818.377805848431    1145.122973449952 
  544000   -5471.202811001687   -5471.202811001687   25292.131033988138  -31820.398207730337    1057.064362740514 
  545000   -5538.617308621848   -5538.617308621848   25215.084800236677  -31818.842109052923    1065.140000194396 
  546000   -5524.137911503898   -5524.137911503898   25183.891589266990  -31817.797500751203    1109.767999980313 
  547000   -5515.666548054687   -5515.666548054687   25298.428601453918  -31818.171626411924    1004.076476903315 
  548000   -5534.930998902732   -5534.930998902732   25137.459162450257  -31821.637243819758    1149.247082466773 
  549000   -5575.931395598687   -5575.931395598687   25144.304266369931  -31818.248474851218    1098.012812882601 
  550000   -5476.720576376370   -5476.720576376370   25261.325895123191  -31816.565184867235    1078.518713367667 
  551000   -5470.092216745852   -5470.092216745852   25289.552106179864  -31813.349312130107    1053.704989204391 
  552000   -5522.664002703114   -5522.664002703114   25252.145563352078  -31817.795403780397    1042.985837725204 
  553000   -5533.330702632655   -5533.330702632655   25235.902830984021  -31823.369850144616    1054.136316527938 
  554000   -5485.877287576877   -5485.877287576877   25223.599975279863  -31818.773292633792    1109.296029777053 
  555000   -5533.087530622546   -5533.087530622546   25213.029286524696  -31818.658843580633    1072.542026433390 
  556000   -5488.239998798952   -5488.239998798952   25207.093434607887  -31814.199720171764    1118.866286764927 
  557000   -5508.214568525385   -5508.214568525385   25291.064945593200  -31820.909154171684    1021.629640053103 
  558000   -5517.465042076215   -5517.465042076215   25206.979099850454  -31818.680178166574    1094.236036239906 
  559000   -5498.804357451892   -5498.804357451892   25260.442298368762  -31822.462047418270    1063.215391597619 
  560000   -5522.961092838479   -5522.961092838479   25213.154062476362  -31814.219230037546    1078.104074722700 
  561000   -5524.191415062036   -5524.191415062036   25258.834684185302  -31823.535120755845    1040.509021508507 
  562000   -5548.239591517406   -5548.239591517406   25211.991407367688  -31821.776931845197    1061.545932960106 
  563000   -5599.526693800148   -5599.526693800148   25097.428041027266  -31817.341792316613    1120.387057489196 
  564000   -5525.171308152025   -5525.171308152025   25096.322942476447  -31814.876279938289    1193.382029309819 
  565000   -5514.961213144768   -5514.961213144768   25296.020955053566  -31822.242473935879    1011.260305737544 
  566000   -5442.244049282494   -5442.244049282494   25318.296605449752  -31818.101010364338    1057.560355632098 
  567000   -5481.143171327007   -5481.143171327007   25228.982355503642  -31813.853233904767    1103.727707074119 
  568000   -5562.887900979778   -5562.887900979778   25170.415796902766  -31819.666218475024    1086.362520592481 
  569000   -5542.075501930962   -5542.075501930962   25211.001109436053  -31820.283297976781    1067.206686609765 
  570000   -5515.740428058398   -5515.740428058398   25242.100312804941  -31821.437025650514    1063.596284787174 
  571000   -5569.129991088292   -5569.129991088292   25120.531543670120  -31822.092774353918    1132.431239595507 
  572000   -5560.110277104559   -5560.110277104559   25167.232495362528  -31817.721575634503    1090.378803167415 
  573000   -5526.651285280041   -5526.651285280041   25221.481131906810  -31818.782504073406    1070.650086886554 
  574000   -5516.253401602124   -5516.253401602124   25229.546695469799  -31816.537625150653    1070.737528078726 
  575000   -5537.150293765768   -5537.150293765768   25144.182625481004  -31819.922863250711    1138.589944003942 
  576000   -5526.062953498858   -5526.062953498858   25199.596838036821  -31821.891559035295    1096.231767499619 
  577000   -5510.552360278827   -5510.552360278827   25238.662654334967  -31822.382981501276    1073.167966887483 
  578000   -5513.094194003308   -5513.094194003308   25250.603718794599  -31822.596342054228    1058.898429256317 
  579000   -5479.816966861548   -5479.816966861548   25304.073089429919  -31819.095553002629    1035.205496711165 
  580000   -5460.462580051902   -5460.462580051902   25267.554435402570  -31817.043174336923    1089.026158882448 
  581000   -5494.740127729838   -5494.740127729838   25266.848155004838  -31815.797302637384    1054.209019902712 
  582000   -5556.694920696391   -5556.694920696391   25199.996187143177  -31818.522843019207    1061.831735179639 
  583000   -5537.491957525282   -5537.491957525282   25215.458932608570  -31820.075247730379    1067.124357596524 
  584000   -5512.997453914355   -5512.997453914355   25239.297223817284  -31821.269139254484    1068.974461522846 
  585000   -5526.387188797387   -5526.387188797387   25210.582051913163  -31814.519823840819    1077.550583130268 
  586000   -5495.221219843781   -5495.221219843781   25258.820784082160  -31820.458964713427    1066.416960787486 
  587000   -5547.235533775540   -5547.235533775540   25103.956246548642  -31821.328892966587    1170.137112642403 
  588000   -5540.878905828533   -5540.878905828533   25116.776269200658  -31817.651158544293    1159.995983515101 
  589000   -5508.803477804722   -5508.803477804722   25155.748041925486  -31820.277407245689    1155.725887515478 
  590000   -5538.415937927413   -5538.415937927413   25196.924050551705  -31818.868485435552    1083.528496956429 
  591000   -5541.605819514498   -5541.605819514498   25123.999944420968  -31820.143558628311    1154.537794692847 
  592000   -5541.550576308233   -5541.550576308233   25182.531943026930  -31819.278519450083    1095.196000114922 
  593000   -5523.737090288068   -5523.737090288068   25180.241826609912  -31822.664331681586    1118.685414783601 
  594000   -5527.138891006562   -5527.138891006562   25158.653032139104  -31817.475166943557    1131.683243797898 
  595000   -5482.187413874424   -5482.187413874424   25221.682438591612  -31817.048887209501    1113.179034743468 
  596000   -5542.074299903437   -5542.074299903437   25238.145163727029  -31819.789176209561    1039.569712579094 
  597000   -5561.217690574715   -5561.217690574715   25172.606059791593  -31820.519068175261    1086.695317808955 
  598000   -5519.718545040843   -5519.718545040843   25172.180558689983  -31814.398046329508    1122.498942598688 
  599000   -5510.275654257399   -5510.275654257399   25216.388411037558  -31812.107151781205    1085.443086486248 
  600000   -5562.795340613549   -5562.795340613549   25109.871637208820  -31821.262616065775    1148.595638243405 
  601000   -5530.304756595502   -5530.304756595502   25175.025967958092  -31822.758412542022    1117.427687988430 
  602000   -5546.670488595471   -5546.670488595471   25150.917631991608  -31819.170511704298    1121.582391117215 
  603000   -5481.267615051605   -5481.267615051605   25244.663866745756  -31821.961612982625    1096.030131185270 
  604000   -5496.909925905780   -5496.909925905780   25240.520376361466  -31818.361755437760    1080.931453170515 
  605000   -5516.404893616218   -5516.404893616218   25260.961016657660  -31820.846789885825    1043.480879611940 
  606000   -5557.089316634003   -5557.089316634003   25172.308628648258  -31820.153654969996    1090.755709687736 
  607000   -5470.731148716273   -5470.731148716273   25319.749116653235  -31819.074697491793    1028.594432122283 
  608000   -5500.961959548593   -5500.961959548593   25298.935262367864  -31819.825760117936    1019.928538201479 
  609000   -5537.156370522145   -5537.156370522145   25181.640167003312  -31815.579421823724    1096.782884298266 
  610000   -5541.088122794488   -5541.088122794488   25243.275386768102  -31821.829111600422    1037.465602037838 
  611000   -5570.907149166771   -5570.907149166771   25204.660696092829  -31822.409428133229    1046.841582873627 
  612000   -5528.377633057451   -5528.377633057451   25230.374655544951  -31817.824511541428    1059.072222939027 
  613000   -5504.779382831832   -5504.779382831832   25230.509767277617  -31821.593675076256    1086.304524966803 
  614000   -5494.591625256762   -5494.591625256762   25308.876241950216  -31820.790994242161    1017.323127035180 
  615000   -5471.611291850026   -5471.611291850026   25332.416551576163  -31821.503812082919    1017.475968656728 
  616000   -5517.438215654594   -5517.438215654594   25211.444904286625  -31819.941036122051    1091.057916180827 
  617000   -5564.807888505715   -5564.807888505715   25045.242770540026  -31815.942283605702    1205.891624559956 
  618000   -5546.472832383370   -5546.472832383370   25138.891528990142  -31817.806141003675    1132.441779630161 
  619000   -5550.114885847150   -5550.114885847150   25145.071297536735  -31820.316346760155    1125.130163376272 
  620000   -5539.615788226125   -5539.615788226125   25245.101279451595  -31817.274105373137    1032.557037695419 
  621000   -5541.449216442797   -5541.449216442797   25247.546499902572  -31820.761654718055    1031.765938372690 
  622000   -5537.614737615539   -5537.614737615539   25166.134354275920  -31820.283210326266    1116.534118434810 
  623000   -5579.711183412492   -5579.711183412492   25121.194758401918  -31823.562162942097    1122.656221127688 
  624000   -5562.931621087067   -5562.931621087067   25160.096830587503  -31819.138765783369    1096.110314108799 
  625000   -5553.543753342514   -5553.543753342514   25186.649854278199  -31821.689396360278    1081.495788739569 
  626000   -5517.870636325126   -5517.870636325126   25117.648837664681  -31821.566376718409    1186.046902728601 
  627000   -5466.748297139820   -5466.748297139820   25309.522843295603  -31818.838305522662    1042.567165087241 
  628000   -5432.579065731908   -5432.579065731908   25350.200370569546  -31820.447812912960    1037.668376611502 
  629000   -5508.508536791051   -5508.508536791051   25255.456949127263  -31820.623421268472    1056.657935350152 
  630000   -5467.943055268723   -5467.943055268723   25266.906215593695  -31818.820108417131    1083.970837554712 
  631000   -5513.030111559678   -5513.030111559678   25283.734974095612  -31815.903604967014    1019.138519311727 
  632000   -5496.532068579614   -5496.532068579614   25273.338367928933  -31818.037297278173    1048.166860769629 
  633000   -5499.549511632387   -5499.549511632387   25243.289459083862  -31817.262373221023    1074.423402504767 
  634000   -5491.332553359887   -5491.332553359887   25246.023989197645  -31819.248187053232    1081.891644495694 
  635000   -5586.389989151969   -5586.389989151969   25102.331685103592  -31819.488275895976    1130.766601640409 
  636000   -5533.742304206542   -5533.742304206542   25158.743545782887  -31817.104706099795    1124.618856110366 
  637000   -5489.218724945946   -5489.218724945946   25225.913786607911  -31818.918724620224    1103.786213066366 
  638000   -5557.940589118069   -5557.940589118069   25166.406919994493  -31821.366538335158    1097.019029222593 
  639000   -5599.479991273380   -5599.479991273380   25105.873762137770  -31823.549340479774    1118.195587068625 
  640000   -5546.309145039420   -5546.309145039420   25248.616984335480  -31821.890030673352    1026.963901298450 
  641000   -5554.851847175833   -5554.851847175833   25165.959644596907  -31819.313994541775    1098.502502769031 
  642000   -5559.732829496708   -5559.732829496708   25147.567481695049  -31822.542713854091    1115.242402662330 
  643000   -5573.154121854586   -5573.154121854586   25083.650390835213  -31821.230751109797    1164.426238419996 
  644000   -5533.880300155142   -5533.880300155142   25166.639650215824  -31815.508823070086    1114.988872699116 
  645000   -5556.895043754019   -5556.895043754019   25140.340073732754  -31819.707502004083    1122.472384517311 
  646000   -5548.012851330659   -5548.012851330659   25203.596696306337  -31820.759783445006    1069.150235808012 
  647000   -5549.162802791448   -5549.162802791448   25141.348117629226  -31819.272459127387    1128.761538706713 
  648000   -5531.591601850221   -5531.591601850221   25199.918778475399  -31816.785348315036    1085.274967989415 
  649000   -5517.435610787838   -5517.435610787838   25235.408222923921  -31821.408447245642    1068.564613533881 
  650000   -5575.067436299454   -5575.067436299454   25142.901281464474  -31820.675135743993    1102.706417980063 
  651000   -5478.556768484337   -5478.556768484337   25337.916418087800  -31819.802618478214    1003.329431906079 
  652000   -5566.334251472454   -5566.334251472454   25184.481039947081  -31822.143232526065    1071.327941106536 
  653000   -5557.052639982299   -5557.052639982299   25150.446929675778  -31818.127465794561    1110.627896136485 
  654000   -5521.732213480725   -5521.732213480725   25254.366700616658  -31817.514854164965    1041.415940067586 
[...]
 4838000   -5452.820613204854   -5452.820613204854   25085.400186698440  -31587.288030739790    1049.067230836494 
 4839000   -5492.223962363725   -5492.223962363725   25042.892201404185  -31586.002487848356    1050.886324080452 
 4840000   -5433.835102429683   -5433.835102429683   25117.903016919023  -31582.901304006915    1031.163184658207 
 4841000   -5442.416077008475   -5442.416077008475   24983.777844140193  -31591.992834073317    1165.798912924653 
 4842000   -5503.631725285912   -5503.631725285912   25000.745503568240  -31589.786741951848    1085.409513097696 
 4843000   -5540.217514287535   -5540.217514287535   24933.627942189523  -31590.070899971026    1116.225443493966 
 4844000   -5530.506136627409   -5530.506136627409   24981.813556682671  -31589.746161380586    1077.426468070504 
 4845000   -5553.326086909939   -5553.326086909939   24891.243424524939  -31587.814340849050    1143.244829414177 
 4846000   -5508.054101550057   -5508.054101550057   25016.371810994078  -31591.437777216623    1067.011864672491 
 4847000   -5602.537416619929   -5602.537416619929   24887.653646244682  -31587.840742500153    1097.649679635545 
 4848000   -5514.607981821933   -5514.607981821933   24941.937201499313  -31586.951946270681    1130.406762949436 
 4849000   -5503.987341748274   -5503.987341748274   25027.951524309199  -31585.680347919584    1053.741481862108 
 4850000   -5507.236140073263   -5507.236140073263   24999.381696421417  -31590.994678799216    1084.376842304536 
 4851000   -5578.722030602832   -5578.722030602832   24894.355205091728  -31590.874294026275    1117.797058331718 
 4852000   -5537.463351971441   -5537.463351971441   24966.620460014172  -31590.506208305742    1086.422396320130 
 4853000   -5537.292171655972   -5537.292171655972   25007.076807071920  -31588.548441188181    1044.179462460289 
 4854000   -5492.386695050678   -5492.386695050678   24981.680426391875  -31586.657507288281    1112.590385845735 
 4855000   -5513.790519994218   -5513.790519994218   24978.181041758646  -31589.157960968521    1097.186399215655 
 4856000   -5502.581977897931   -5502.581977897931   25029.542880658246  -31593.767870901862    1061.643012345682 
 4857000   -5511.659941962549   -5511.659941962549   24998.759750826306  -31588.073206165114    1077.653513376255 
 4858000   -5531.969625924346   -5531.969625924346   24990.778223035559  -31587.489057535357    1064.741208575452 
 4859000   -5553.661866612409   -5553.661866612409   24902.827379990078  -31594.864699949489    1138.375453347006 
 4860000   -5529.564024081759   -5529.564024081759   25033.849003963613  -31591.445269072025    1028.032241026653 
 4861000   -5562.643968343706   -5562.643968343706   24983.481379711866  -31586.293469240896    1040.168121185326 
 4862000   -5530.967354981371   -5530.967354981371   24968.162523763734  -31588.500073860017    1089.370195114914 
 4863000   -5547.946491603041   -5547.946491603041   24936.188138871556  -31592.488630677020    1108.354000202424 
 4864000   -5584.216364404128   -5584.216364404128   24879.157037576726  -31593.162645356762    1129.789243375907 
 4865000   -5545.568170210736   -5545.568170210736   24943.975143018964  -31589.620313317890    1100.077000088189 
 4866000   -5582.278579838818   -5582.278579838818   24890.302907064994  -31589.401973614575    1116.820486710763 
 4867000   -5555.890545511775   -5555.890545511775   24967.108299441083  -31594.069940906895    1071.071095954038 
 4868000   -5509.883566772594   -5509.883566772594   24973.863566260501  -31587.911376564811    1104.164243531714 
 4869000   -5508.100295963130   -5508.100295963130   24982.476843958149  -31586.556924763259    1095.979784841979 
 4870000   -5566.866471749741   -5566.866471749741   24924.425536080293  -31590.954345082966    1099.662337252934 
 4871000   -5546.143469737792   -5546.143469737792   24928.749913231622  -31584.114014194325    1109.220631224915 
 4872000   -5499.296185289226   -5499.296185289226   25000.644404893465  -31589.981720843083    1090.041130660391 
 4873000   -5512.611986428623   -5512.611986428623   24969.146858194115  -31587.928999745585    1106.170155122850 
 4874000   -5472.557360279090   -5472.557360279090   25053.202670855033  -31584.391489490019    1058.631458355893 
 4875000   -5485.239490095282   -5485.239490095282   25063.999978795462  -31586.033096496907    1036.793627606162 
 4876000   -5486.021384972573   -5486.021384972573   25026.141296522961  -31585.605636350730    1073.442954855201 
 4877000   -5484.927599991734   -5484.927599991734   25074.595763438636  -31588.590290222794    1029.066926792421 
 4878000   -5495.245743042906   -5495.245743042906   25035.845530286726  -31585.546177503667    1054.454904174037 
 4879000   -5562.183591776749   -5562.183591776749   24924.624632307481  -31588.731153345991    1101.922929261761 
 4880000   -5574.412610017349   -5574.412610017349   24934.602934144918  -31590.600636429950    1081.585092267680 
 4881000   -5564.420956404752   -5564.420956404752   24943.108396112904  -31589.396429422395    1081.867076904742 
 4882000   -5517.355382555979   -5517.355382555979   25012.143789825972  -31588.720522976208    1059.221350594255 
 4883000   -5493.870950012690   -5493.870950012690   25030.549485961586  -31586.271366127639    1061.850930153360 
 4884000   -5543.692132187851   -5543.692132187851   25015.758014777515  -31590.681090060749    1031.230943095378 
 4885000   -5512.972273499145   -5512.972273499145   24955.950530074799  -31584.695318762075    1115.772515188128 
 4886000   -5475.007839333648   -5475.007839333648   24992.512620248162  -31589.903655594739    1122.383196012929 
 4887000   -5491.800138706243   -5491.800138706243   25039.120651488862  -31589.446644543936    1058.525854348828 
 4888000   -5558.955954395835   -5558.955954395835   24981.496062513088  -31590.413780022122    1049.961763113201 
 4889000   -5497.576851773843   -5497.576851773843   25037.539079025162  -31583.036695644761    1047.920764845753 
 4890000   -5542.923434745859   -5542.923434745859   25024.459281800260  -31585.772630672407    1018.389914126289 
 4891000   -5521.987158896733   -5521.987158896733   24987.184037609157  -31588.145176087044    1078.973979581157 
 4892000   -5457.209280024515   -5457.209280024515   25008.406971159486  -31588.185854651842    1122.569603467844 
 4893000   -5541.047913780603   -5541.047913780603   24939.582637044798  -31592.528396801561    1111.897845976164 
 4894000   -5512.982033462347   -5512.982033462347   25020.129051302807  -31583.245580601466    1050.134495836307 
 4895000   -5493.467247723696   -5493.467247723696   25027.983753282489  -31585.924922974526    1064.473921968344 
 4896000   -5547.152910616700   -5547.152910616700   24925.008620624671  -31587.878966268705    1115.717435027334 
 4897000   -5507.958910324567   -5507.958910324567   24944.005182129240  -31587.945622795000    1135.981530341197 
 4898000   -5525.541303472412   -5525.541303472412   24957.387457231373  -31585.766444916895    1102.837684213108 
 4899000   -5495.960926846579   -5495.960926846579   25024.493700528859  -31583.715934251799    1063.261306876370 
 4900000   -5498.684798077018   -5498.684798077018   25042.027412465985  -31586.037430853612    1045.325220310610 
 4901000   -5475.472954009001   -5475.472954009001   25008.674968545121  -31587.816970562460    1103.669048008342 
 4902000   -5512.878036112987   -5512.878036112987   24949.640897283767  -31583.569213476123    1121.050280079369 
 4903000   -5520.133897802210   -5520.133897802210   24969.475648983338  -31586.994242456909    1097.384695671364 
 4904000   -5511.542081850697   -5511.542081850697   25041.751561436951  -31587.099155944230    1033.805512656583 
 4905000   -5540.377085861404   -5540.377085861404   24958.153806914568  -31588.293539185350    1089.762646409381 
 4906000   -5545.098847692130   -5545.098847692130   24970.387489606161  -31588.863816134141    1073.377478835848 
 4907000   -5583.338534660503   -5583.338534660503   24944.430236634002  -31588.512527284664    1060.743755990160 
 4908000   -5562.937790606582   -5562.937790606582   24944.353711859701  -31591.446493251991    1084.154990785709 
 4909000   -5494.141079092988   -5494.141079092988   25071.913661951090  -31588.506677905847    1022.451936861772 
 4910000   -5550.723391198426   -5550.723391198426   24938.011164692231  -31585.817678125732    1097.083122235078 
 4911000   -5547.047238964449   -5547.047238964449   24892.566200076217  -31588.877019356049    1149.263580315383 
 4912000   -5511.514319972717   -5511.514319972717   24953.128826253233  -31589.619164223317    1124.976017997366 
 4913000   -5453.377607312337   -5453.377607312337   25012.530068947362  -31582.451811723338    1116.544135463636 
 4914000   -5517.833341389363   -5517.833341389363   25035.375651622817  -31592.095502126962    1038.886509114785 
 4915000   -5541.348619423610   -5541.348619423610   24985.753055634130  -31590.199986893058    1063.098311835317 
 4916000   -5559.538610269687   -5559.538610269687   24956.459909976395  -31591.189998786729    1075.191478540652 
 4917000   -5490.626448656170   -5490.626448656170   24944.719038945335  -31586.349972581658    1151.004484980153 
 4918000   -5537.581215858154   -5537.581215858154   24930.605163518157  -31588.104812174570    1119.918432798262 
 4919000   -5528.106863562116   -5528.106863562116   24998.672822551493  -31587.536234408191    1060.756548294585 
 4920000   -5512.360930448052   -5512.360930448052   25025.660537552270  -31585.090352596606    1047.068884596285 
 4921000   -5523.223963440305   -5523.223963440305   24936.681609999228  -31586.033457414978    1126.127883975443 
 4922000   -5559.386773592196   -5559.386773592196   24944.530250258817  -31590.619482219798    1086.702458368788 
 4923000   -5582.968916968406   -5582.968916968406   24872.554647158508  -31588.694140479005    1133.170576352092 
 4924000   -5509.974316837186   -5509.974316837186   24960.425363980299  -31590.870878816186    1120.471197998699 
 4925000   -5595.319394522016   -5595.319394522016   24881.602500191202  -31587.929074898078    1111.007180184860 
 4926000   -5568.042221013278   -5568.042221013278   24886.555990906501  -31589.725897870758    1135.127685950973 
 4927000   -5561.904563382137   -5561.904563382137   24945.437403681251  -31588.380473613135    1081.038506549746 
 4928000   -5450.219402570739   -5450.219402570739   25046.557599938533  -31588.304261016510    1091.527258507238 
 4929000   -5482.839922886764   -5482.839922886764   25044.475446977594  -31587.397926524307    1060.082556659949 
 4930000   -5523.176908245874   -5523.176908245874   25010.955474190519  -31589.614728999441    1055.482346563045 
 4931000   -5458.962091652447   -5458.962091652447   25087.943093099027  -31581.791112808136    1034.885928056663 
 4932000   -5497.697661784732   -5497.697661784732   25015.494809686843  -31589.432213378703    1076.239741907130 
 4933000   -5499.011837728001   -5499.011837728001   24988.377991308720  -31587.068109866581    1099.678280829858 
 4934000   -5478.345766492435   -5478.345766492435   25058.535096545609  -31586.155621027639    1049.274757989593 
 4935000   -5493.888840204098   -5493.888840204098   24951.983230330963  -31583.984423687405    1138.112353152348 
 4936000   -5548.309592591082   -5548.309592591082   24924.928778657184  -31588.097292602710    1114.858921354445 
 4937000   -5514.625748421582   -5514.625748421582   25037.290072084601  -31588.406235595197    1036.490415089013 
 4938000   -5544.094523057985   -5544.094523057985   24957.502223072406  -31590.755736017793    1089.158989887404 
 4939000   -5546.443629375372   -5546.443629375372   24929.509396559588  -31587.786000007884    1111.832974072928 
 4940000   -5554.539158111078   -5554.539158111078   24882.289328629813  -31591.084706303031    1154.256219562140 
 4941000   -5498.388715162437   -5498.388715162437   24976.963436329304  -31589.160123359579    1113.807971867836 
 4942000   -5497.758284224466   -5497.758284224466   25062.510713728938  -31586.602988136743    1026.333990183344 
 4943000   -5545.736661106734   -5545.736661106734   24867.275803121483  -31591.568425344703    1178.555961116491 
 4944000   -5502.684788463135   -5502.684788463135   25013.814888589113  -31585.325217772093    1068.825540719847 
 4945000   -5487.919407353722   -5487.919407353722   25049.674233416237  -31589.643481802814    1052.049841032850 
 4946000   -5486.132798424489   -5486.132798424489   25031.003922152187  -31587.044402368942    1069.907681792263 
 4947000   -5520.625273315742   -5520.625273315742   24998.629262481307  -31587.898632022883    1068.644096225832 
 4948000   -5539.647980137510   -5539.647980137510   24874.803865953370  -31584.747576667622    1170.295730576741 
 4949000   -5553.815758529141   -5553.815758529141   24917.160644064021  -31591.153017269287    1120.176614676129 
 4950000   -5578.711794166960   -5578.711794166960   24891.208481217855  -31591.590266103649    1121.669990718837 
 4951000   -5440.328754500431   -5440.328754500431   25167.897902616111  -31587.381889666889     979.155232550344 
 4952000   -5531.573040159343   -5531.573040159343   24978.364975236120  -31587.406838586314    1077.468823190852 
 4953000   -5580.564926328785   -5580.564926328785   24859.571303624383  -31590.020490918185    1149.884260965014 
 4954000   -5586.320560068238   -5586.320560068238   24864.317183158142  -31589.357886788712    1138.720143562334 
 4955000   -5556.288273792568   -5556.288273792568   24964.182660229533  -31585.954375588357    1065.483441566255 
 4956000   -5521.705454661664   -5521.705454661664   25022.059390076753  -31592.273693242088    1048.508848503672 
 4957000   -5573.249899170522   -5573.249899170522   24929.382291978465  -31591.846954940655    1089.214763791668 
 4958000   -5553.230900105445   -5553.230900105445   24903.287204866443  -31587.275380883773    1130.757275911886 
 4959000   -5582.366706140379   -5582.366706140379   24908.147512398544  -31588.607404558588    1098.093186019666 
 4960000   -5541.458968329433   -5541.458968329433   24940.549562162858  -31589.589766781715    1107.581236289425 
 4961000   -5618.493323657396   -5618.493323657396   24827.257417073215  -31592.238310105186    1146.487569374576 
 4962000   -5533.632617290961   -5533.632617290961   25006.421997511789  -31591.698230099690    1051.643615296938 
 4963000   -5578.662803456336   -5578.662803456336   24925.842287675299  -31587.476724705914    1082.971633574280 
 4964000   -5482.286107829492   -5482.286107829492   24955.241538461720  -31587.964718549196    1150.437072257984 
 4965000   -5503.812740384717   -5503.812740384717   25042.378627694372  -31591.942943783692    1045.751575704596 
 4966000   -5531.922423382261   -5531.922423382261   24996.308844380295  -31592.931116438085    1064.699848675527 
 4967000   -5527.924329034817   -5527.924329034817   24938.964326082129  -31588.644597959035    1121.755942842086 
 4968000   -5528.514853556626   -5528.514853556626   25054.030596880650  -31592.097178604585    1009.551728167306 
 4969000   -5549.303926184879   -5549.303926184879   24943.718298558862  -31584.923231824640    1091.901007080892 
 4970000   -5524.189693484936   -5524.189693484936   24974.250688268454  -31587.500820683585    1089.060438930193 
 4971000   -5527.071800437407   -5527.071800437407   24977.807301473251  -31588.882980909751    1084.003878999092 
 4972000   -5551.941959784974   -5551.941959784974   24959.545446330078  -31587.063789340184    1075.576383225131 
 4973000   -5507.559088171747   -5507.559088171747   25017.232459632585  -31589.569944212879    1064.778396408547 
 4974000   -5567.612632119315   -5567.612632119315   24858.203473356069  -31590.247937038224    1164.431831562842 
 4975000   -5567.782775002492   -5567.782775002492   24894.311228244012  -31591.866929634896    1129.772926388392 
 4976000   -5480.977125613295   -5480.977125613295   25073.439533398727  -31588.847973639215    1034.431314627194 
 4977000   -5502.622521024765   -5502.622521024765   25015.531356415173  -31589.633611933878    1071.479734493940 
 4978000   -5528.317087733605   -5528.317087733605   24960.931036899405  -31591.945621382769    1102.697496749761 
 4979000   -5534.551349639019   -5534.551349639019   24953.721713528546  -31590.730271354132    1102.457208186569 
 4980000   -5427.751658467823   -5427.751658467823   25103.539082901269  -31586.333239769192    1055.042498400104 
 4981000   -5492.855894464938   -5492.855894464938   25079.895598921627  -31587.331667872095    1014.580174485528 
 4982000   -5576.209117611623   -5576.209117611623   24870.574028479099  -31589.152567631376    1142.369421540656 
 4983000   -5541.436285506705   -5541.436285506705   24952.384380638956  -31587.766793372601    1093.946127226941 
 4984000   -5532.602563356573   -5532.602563356573   24934.500787922934  -31585.432391152135    1118.329039872630 
 4985000   -5525.948946025277   -5525.948946025277   24980.585338962184  -31591.361548571269    1084.827263583806 
 4986000   -5475.731499531095   -5475.731499531095   24973.029221450997  -31585.610163451645    1136.849442469551 
 4987000   -5563.580263734602   -5563.580263734602   24909.213028362276  -31586.021944944761    1113.228652847891 
 4988000   -5501.609271378802   -5501.609271378802   24949.000405521976  -31588.912653101630    1138.302976200849 
 4989000   -5509.892005025100   -5509.892005025100   25029.273343134599  -31591.761472112776    1052.596123953077 
 4990000   -5507.842427596166   -5507.842427596166   24947.775387429334  -31588.311399224847    1132.693584199343 
 4991000   -5464.606258531214   -5464.606258531214   25077.538307294381  -31586.732501897470    1044.587936071876 
 4992000   -5551.105332359715   -5551.105332359715   24936.359355897886  -31590.639049566184    1103.174361308585 
 4993000   -5561.814252343891   -5561.814252343891   24917.226807950778  -31589.733299787633    1110.692239492966 
 4994000   -5523.852840886255   -5523.852840886255   24950.219363951128  -31588.591233692056    1114.519028854673 
 4995000   -5528.175105023576   -5528.175105023576   25039.229769766745  -31590.032430279782    1022.627555489461 
 4996000   -5492.932224671389   -5492.932224671389   25036.257055497299  -31586.614129892740    1057.424849724048 
 4997000   -5488.647205074125   -5488.647205074125   25005.466063904183  -31586.549642696675    1092.436373718368 
 4998000   -5501.766914269985   -5501.766914269985   24980.342421117377  -31589.487054585883    1107.377719198523 
 4999000   -5469.167701967326   -5469.167701967326   25054.161104834631  -31587.021766878148    1063.692960076194 
 5000000   -5557.296685380243   -5557.296685380243   24977.061077398710  -31590.751625463781    1056.393862684823 
Loop time of 29.9688 on 8 procs for 5001 steps with 1503 atoms

Performance: 14.418 ns/day, 1.665 hours/ns, 166.873 timesteps/s
98.9% CPU use with 8 MPI tasks x 1 OpenMP threads

MPI task timing breakdown:
Section |  min time  |  avg time  |  max time  |%varavg| %total
---------------------------------------------------------------
Pair    | 0          | 0          | 0          |   0.0 |  0.00
Bond    | 0          | 0          | 0          |   0.0 |  0.00
Kspace  | 0          | 0          | 0          |   0.0 |  0.00
Neigh   | 0          | 0          | 0          |   0.0 |  0.00
Comm    | 0          | 0          | 0          |   0.0 |  0.00
Output  | 0          | 0          | 0          |   0.0 |  0.00
Modify  | 0          | 0          | 0          |   0.0 |  0.00
Other   |            | 29.97      |            |       |100.00

Nlocal:    187.875 ave 193 max 178 min
Histogram: 1 0 0 1 0 0 1 1 3 1
Nghost:    4575.38 ave 4623 max 4508 min
Histogram: 1 0 1 1 0 1 0 2 0 2
Neighs:    66786.1 ave 68922 max 62001 min
Histogram: 1 0 0 0 1 1 0 1 1 3

Total # of neighbors = 534289
Ave neighs/atom = 355.482
Ave special neighs/atom = 2
Neighbor list builds = 0
Dangerous builds = 0
Total wall time: 0:01:30
