LAMMPS (3 Mar 2020)
  using 1 OpenMP thread(s) per MPI task
Reading data file ...
  orthogonal box = (0 0 0) to (24 24 24)
  2 by 2 by 2 MPI processor grid
  reading atoms ...
  1503 atoms
  scanning bonds ...
  2 = max bonds/atom
  scanning angles ...
  1 = max angles/atom
  reading bonds ...
  1002 bonds
  reading angles ...
  501 angles
Finding 1-2 1-3 1-4 neighbors ...
  special bond factors lj:   0          0          0         
  special bond factors coul: 0          0          0         
  2 = max # of 1-2 neighbors
  1 = max # of 1-3 neighbors
  1 = max # of 1-4 neighbors
  2 = max # of special neighbors
  special bonds CPU = 0.00142279 secs
  read_data CPU = 0.00931241 secs
Setting atom values ...
  1 settings made for charge
Setting atom values ...
  2 settings made for charge
WARNING: Using 'neigh_modify every 1 delay 0 check yes' setting during minimization (src/min.cpp:190)
PPPM initialization ...
  using 12-bit tables for long-range coulomb (src/kspace.cpp:332)
  G vector (1/distance) = 0.315108
  grid = 24 24 24
  stencil order = 5
  estimated absolute RMS force accuracy = 0.00171108
  estimated relative force accuracy = 5.15285e-06
  using double precision MKL FFT
  3d grid and FFT values/proc = 6859 1728
Neighbor list info ...
  update every 1 steps, delay 0 steps, check yes
  max neighbors/atom: 2000, page size: 100000
  master list distance cutoff = 12
  ghost atom cutoff = 12
  binsize = 6, bins = 4 4 4
  3 neighbor lists, perpetual/occasional/extra = 3 0 0
  (1) pair lj/cut/coul/long, perpetual, skip from (3)
      attributes: half, newton on
      pair build: skip
      stencil: none
      bin: none
  (2) pair lj/cut/coul/long/soft, perpetual, skip from (3)
      attributes: half, newton on
      pair build: skip
      stencil: none
      bin: none
  (3) neighbor class addition, perpetual
      attributes: half, newton on
      pair build: half/bin/newton
      stencil: half/bin/3d/newton
      bin: standard
Setting up cg style minimization ...
  Unit style    : real
  Current step  : 0
Per MPI rank memory allocation (min/avg/max) = 10.15 | 10.15 | 10.16 Mbytes
Step Temp E_pair E_mol TotEng Press 
       0            0   -235.89453   0.56510211   -235.32942    17953.305 
      75            0   -6863.4207    364.75309   -6498.6676   -2834.4421 
Loop time of 0.2818 on 8 procs for 75 steps with 1503 atoms

98.5% CPU use with 8 MPI tasks x 1 OpenMP threads

Minimization stats:
  Stopping criterion = energy tolerance
  Energy initial, next-to-last, final = 
        -235.329424528     -6493.33534602      -6498.6675997
  Force two-norm initial, final = 680.779 96.8048
  Force max component initial, final = 40.06 9.21777
  Final line search alpha, max atom move = 0.00389442 0.0358978
  Iterations, force evaluations = 75 129

MPI task timing breakdown:
Section |  min time  |  avg time  |  max time  |%varavg| %total
---------------------------------------------------------------
Pair    | 0.18895    | 0.19182    | 0.19708    |   0.5 | 68.07
Bond    | 0.00067888 | 0.00069796 | 0.00071503 |   0.0 |  0.25
Kspace  | 0.062068   | 0.067248   | 0.070172   |   0.9 | 23.86
Neigh   | 0.0058691  | 0.0058856  | 0.0059     |   0.0 |  2.09
Comm    | 0.012967   | 0.013146   | 0.013295   |   0.1 |  4.66
Output  | 0          | 0          | 0          |   0.0 |  0.00
Modify  | 0          | 0          | 0          |   0.0 |  0.00
Other   |            | 0.003      |            |       |  1.06

Nlocal:    187.875 ave 190 max 186 min
Histogram: 1 0 2 0 0 3 0 1 0 1
Nghost:    4884.75 ave 4900 max 4872 min
Histogram: 1 1 1 0 1 2 0 1 0 1
Neighs:    72935.5 ave 74223 max 71532 min
Histogram: 1 1 0 0 1 2 1 1 0 1

Total # of neighbors = 583484
Ave neighs/atom = 388.213
Ave special neighs/atom = 2
Neighbor list builds = 4
Dangerous builds = 0
Finding SHAKE clusters ...
  0 = # of size 2 clusters
  0 = # of size 3 clusters
  0 = # of size 4 clusters
  501 = # of frozen angles
  find clusters CPU = 0.000320375 secs
PPPM initialization ...
  using 12-bit tables for long-range coulomb (src/kspace.cpp:332)
  G vector (1/distance) = 0.315108
  grid = 24 24 24
  stencil order = 5
  estimated absolute RMS force accuracy = 0.00171108
  estimated relative force accuracy = 5.15285e-06
  using double precision MKL FFT
  3d grid and FFT values/proc = 6859 1728
Neighbor list info ...
  update every 1 steps, delay 10 steps, check yes
  max neighbors/atom: 2000, page size: 100000
  master list distance cutoff = 12
  ghost atom cutoff = 12
  binsize = 6, bins = 4 4 4
  3 neighbor lists, perpetual/occasional/extra = 3 0 0
  (1) pair lj/cut/coul/long, perpetual, skip from (3)
      attributes: half, newton on
      pair build: skip
      stencil: none
      bin: none
  (2) pair lj/cut/coul/long/soft, perpetual, skip from (3)
      attributes: half, newton on
      pair build: skip
      stencil: none
      bin: none
  (3) neighbor class addition, perpetual
      attributes: half, newton on
      pair build: half/bin/newton
      stencil: half/bin/3d/newton
      bin: standard
Setting up Verlet run ...
  Unit style    : real
  Current step  : 75
  Time step     : 1
Per MPI rank memory allocation (min/avg/max) = 9.904 | 9.905 | 9.906 Mbytes
Step Temp TotEng PotEng E_bond E_angle E_dihed E_coul E_long E_vdwl 
      75     300.000000   -5968.283435   -6863.420693       0.000000       0.000000       0.000000   23482.239011  -31800.042315    1454.382610 
   10000     284.490346   -4611.530039   -5460.389734       0.000000       0.000000       0.000000   25216.715811  -31786.116362    1109.010817 
   20000     300.316184   -4616.245636   -5512.326322       0.000000       0.000000       0.000000   25219.521612  -31792.332226    1060.484292 
   30000     299.345061   -4617.303101   -5510.486157       0.000000       0.000000       0.000000   25171.394218  -31794.181605    1112.301230 
   40000     302.804238   -4565.067773   -5468.572292       0.000000       0.000000       0.000000   25234.027200  -31791.680824    1089.081331 
   50000     305.523583   -4635.338085   -5546.956558       0.000000       0.000000       0.000000   25231.098860  -31795.660959    1017.605541 
   60000     303.812233   -4596.332826   -5502.844991       0.000000       0.000000       0.000000   25230.705683  -31791.236868    1057.686194 
   70000     305.221924   -4671.552379   -5582.270767       0.000000       0.000000       0.000000   25080.027554  -31795.293215    1132.994893 
   80000     291.964891   -4588.516453   -5459.678626       0.000000       0.000000       0.000000   25276.586933  -31788.367694    1052.102135 
   90000     303.869184   -4579.991232   -5486.673325       0.000000       0.000000       0.000000   25206.059988  -31792.365297    1099.631984 
  100000     297.471693   -4638.627765   -5526.221083       0.000000       0.000000       0.000000   25236.005450  -31794.025921    1031.799388 
  110000     299.881892   -4647.081375   -5541.866224       0.000000       0.000000       0.000000   25094.413566  -31790.277423    1153.997633 
  120000     296.100288   -4627.617648   -5511.118981       0.000000       0.000000       0.000000   25199.071253  -31792.392633    1082.202398 
  130000     295.668719   -4703.753767   -5585.967388       0.000000       0.000000       0.000000   25091.916782  -31793.909621    1116.025451 
  140000     312.402968   -4592.425160   -5524.570279       0.000000       0.000000       0.000000   25212.522733  -31791.658468    1054.565456 
  150000     294.758427   -4692.553012   -5572.050514       0.000000       0.000000       0.000000   25045.514187  -31792.582831    1175.018130 
  160000     299.554440   -4628.502445   -5522.310244       0.000000       0.000000       0.000000   25159.041373  -31790.149951    1108.798334 
  170000     293.194926   -4636.461091   -5511.293430       0.000000       0.000000       0.000000   25216.216433  -31791.387992    1063.878129 
  180000     288.534951   -4631.908094   -5492.836042       0.000000       0.000000       0.000000   25210.457909  -31788.797763    1085.503811 
  190000     298.886284   -4620.281562   -5512.095724       0.000000       0.000000       0.000000   25115.031141  -31793.677906    1166.551042 
  200000     290.686611   -4611.300585   -5478.648637       0.000000       0.000000       0.000000   25150.826147  -31789.920267    1160.445483 
  210000     304.581302   -4668.208443   -5577.015347       0.000000       0.000000       0.000000   25135.465620  -31794.814643    1082.333676 
  220000     300.480005   -4590.182192   -5486.751684       0.000000       0.000000       0.000000   25267.217130  -31793.192098    1039.223285 
  230000     304.682236   -4613.574111   -5522.682183       0.000000       0.000000       0.000000   25172.462911  -31790.670819    1095.525725 
  240000     307.166319   -4617.924141   -5534.444195       0.000000       0.000000       0.000000   25218.229204  -31794.580072    1041.906672 
  250000     300.655507   -4634.896190   -5531.989345       0.000000       0.000000       0.000000   25228.069651  -31791.967397    1031.908402 
  260000     306.838342   -4599.078498   -5514.619937       0.000000       0.000000       0.000000   25234.716465  -31788.434200    1039.097799 
  270000     302.234330   -4590.717419   -5492.521450       0.000000       0.000000       0.000000   25285.461920  -31794.374936    1016.391567 
  280000     302.042819   -4571.200590   -5472.433193       0.000000       0.000000       0.000000   25240.418340  -31789.230766    1076.379232 
  290000     308.813151   -4624.377258   -5545.811116       0.000000       0.000000       0.000000   25182.870866  -31793.042210    1064.360229 
  300000     295.788573   -4601.012036   -5483.583277       0.000000       0.000000       0.000000   25253.256216  -31792.448615    1055.609122 
  310000     315.497958   -4538.607491   -5479.987415       0.000000       0.000000       0.000000   25258.830631  -31787.906078    1049.088033 
  320000     315.496564   -4615.937718   -5557.313483       0.000000       0.000000       0.000000   25129.903974  -31796.304768    1109.087312 
  330000     300.506464   -4651.058462   -5547.706904       0.000000       0.000000       0.000000   25181.929080  -31795.848114    1066.212130 
  340000     298.431329   -4630.534684   -5520.991355       0.000000       0.000000       0.000000   25204.284526  -31791.475721    1066.199840 
  350000     310.898555   -4602.250477   -5529.906742       0.000000       0.000000       0.000000   25152.037634  -31794.741905    1112.797528 
  360000     299.327544   -4616.778402   -5509.909193       0.000000       0.000000       0.000000   25182.829247  -31791.038885    1098.300445 
  370000     300.858129   -4628.981703   -5526.679439       0.000000       0.000000       0.000000   25191.141432  -31791.672722    1073.851850 
  380000     294.847785   -4614.875460   -5494.639586       0.000000       0.000000       0.000000   25160.270912  -31788.425638    1133.515140 
  390000     295.447089   -4621.503378   -5503.055702       0.000000       0.000000       0.000000   25223.407686  -31793.371128    1066.907740 
  400000     307.878273   -4634.023543   -5552.667921       0.000000       0.000000       0.000000   25129.956122  -31790.668243    1108.044199 
  410000     294.793341   -4574.009515   -5453.611190       0.000000       0.000000       0.000000   25292.828675  -31790.498212    1044.058347 
  420000     294.420647   -4648.718293   -5527.207930       0.000000       0.000000       0.000000   25126.961632  -31791.871924    1137.702362 
  430000     290.247590   -4628.867856   -5494.905962       0.000000       0.000000       0.000000   25188.863138  -31790.605237    1106.836137 
  440000     295.535230   -4657.685496   -5539.500814       0.000000       0.000000       0.000000   25151.994058  -31793.361027    1101.866155 
  450000     310.345323   -4663.727829   -5589.733366       0.000000       0.000000       0.000000   25084.546936  -31792.145162    1117.864860 
  460000     296.256550   -4610.565025   -5494.532612       0.000000       0.000000       0.000000   25249.323206  -31790.765628    1046.909810 
  470000     298.234700   -4634.388094   -5524.258066       0.000000       0.000000       0.000000   25283.064442  -31792.226650     984.904142 
  480000     297.694149   -4703.346244   -5591.603326       0.000000       0.000000       0.000000   25072.906521  -31793.704227    1129.194380 
  490000     293.428835   -4620.957652   -5496.487927       0.000000       0.000000       0.000000   25233.113703  -31792.619984    1063.018353 
  500000     297.532176   -4669.864070   -5557.637857       0.000000       0.000000       0.000000   25111.586899  -31791.383932    1122.159176 
  510000     301.589607   -4596.982078   -5496.862392       0.000000       0.000000       0.000000   25234.396497  -31789.576703    1058.317814 
  520000     302.352335   -4633.374212   -5535.530346       0.000000       0.000000       0.000000   25108.078882  -31789.861137    1146.251909 
  530000     298.096811   -4617.226310   -5506.684849       0.000000       0.000000       0.000000   25178.406085  -31793.817800    1108.726865 
  540000     293.260277   -4608.484383   -5483.511717       0.000000       0.000000       0.000000   25272.542821  -31794.271841    1038.217303 
  550000     297.070426   -4595.864599   -5482.260621       0.000000       0.000000       0.000000   25227.408068  -31789.490627    1079.821938 
  560000     302.263984   -4621.375905   -5523.268418       0.000000       0.000000       0.000000   25176.416049  -31792.827565    1093.143098 
  570000     289.375183   -4664.706038   -5528.141063       0.000000       0.000000       0.000000   25204.511992  -31793.614977    1060.961922 
  580000     295.561911   -4589.031646   -5470.926575       0.000000       0.000000       0.000000   25184.162415  -31790.984902    1135.895913 
  590000     298.730302   -4623.796838   -5515.145584       0.000000       0.000000       0.000000   25158.886591  -31790.453702    1116.421527 
  600000     296.066014   -4624.609626   -5508.008693       0.000000       0.000000       0.000000   25192.792764  -31784.357709    1083.556251 
  610000     297.031610   -4679.859827   -5566.140030       0.000000       0.000000       0.000000   25069.537529  -31793.901500    1158.223941 
  620000     297.208354   -4621.061531   -5507.869101       0.000000       0.000000       0.000000   25224.196893  -31792.962413    1060.896419 
  630000     289.724378   -4727.814934   -5592.291887       0.000000       0.000000       0.000000   25136.958808  -31791.864115    1062.613420 
  640000     308.617606   -4584.104264   -5504.954656       0.000000       0.000000       0.000000   25237.943236  -31791.873602    1048.975710 
  650000     292.765539   -4591.502265   -5465.053405       0.000000       0.000000       0.000000   25221.009700  -31789.998645    1103.935539 
  660000     298.376632   -4593.408623   -5483.702089       0.000000       0.000000       0.000000   25213.989351  -31787.360072    1089.668632 
  670000     316.555019   -4587.459070   -5531.993041       0.000000       0.000000       0.000000   25213.726096  -31793.079764    1047.360627 
  680000     308.195070   -4601.919847   -5521.509481       0.000000       0.000000       0.000000   25206.824176  -31788.807976    1060.474320 
  690000     306.962132   -4559.886909   -5475.797712       0.000000       0.000000       0.000000   25236.175883  -31790.393314    1078.419720 
  700000     292.706026   -4557.732076   -5431.105643       0.000000       0.000000       0.000000   25348.004464  -31788.570089    1009.459983 
  710000     286.681048   -4707.866052   -5563.262343       0.000000       0.000000       0.000000   25106.991975  -31792.220526    1121.966208 
  720000     318.482098   -4568.709984   -5518.993958       0.000000       0.000000       0.000000   25199.307579  -31788.584323    1070.282786 
  730000     297.805977   -4620.928210   -5509.518963       0.000000       0.000000       0.000000   25223.423664  -31790.196834    1057.254207 
  740000     311.902643   -4622.160159   -5552.812414       0.000000       0.000000       0.000000   25112.254297  -31790.868586    1125.801874 
  750000     299.959933   -4672.205460   -5567.223166       0.000000       0.000000       0.000000   25156.431422  -31790.374581    1066.719993 
  760000     306.006470   -4593.194806   -5506.254114       0.000000       0.000000       0.000000   25210.165409  -31790.929488    1074.509965 
  770000     285.626458   -4667.533189   -5519.782803       0.000000       0.000000       0.000000   25154.938292  -31788.222398    1113.501303 
  780000     292.333459   -4674.800668   -5547.062572       0.000000       0.000000       0.000000   25073.729913  -31788.947879    1168.155395 
  790000     300.142675   -4606.987909   -5502.550881       0.000000       0.000000       0.000000   25208.341327  -31787.390642    1076.498434 
  800000     292.482145   -4691.244566   -5563.950118       0.000000       0.000000       0.000000   25130.187508  -31792.199801    1098.062175 
  810000     308.746454   -4560.636275   -5481.871123       0.000000       0.000000       0.000000   25236.014963  -31792.548731    1074.662646 
  820000     303.977337   -4631.722219   -5538.727020       0.000000       0.000000       0.000000   25178.427205  -31788.567111    1071.412887 
  830000     292.594319   -4630.270368   -5503.310624       0.000000       0.000000       0.000000   25205.109094  -31791.163006    1082.743289 
  840000     300.875894   -4612.334981   -5510.085723       0.000000       0.000000       0.000000   25260.431096  -31793.397455    1022.880636 
  850000     298.872095   -4694.848435   -5586.620260       0.000000       0.000000       0.000000   25092.633826  -31792.253512    1112.999426 
  860000     289.838768   -4651.673225   -5516.491492       0.000000       0.000000       0.000000   25154.763059  -31794.174808    1122.920257 
  870000     308.719247   -4620.607757   -5541.761426       0.000000       0.000000       0.000000   25213.133592  -31793.524852    1038.629834 
  880000     302.255052   -4618.015985   -5519.881847       0.000000       0.000000       0.000000   25187.597902  -31792.978215    1085.498466 
  890000     289.818261   -4680.367468   -5545.124546       0.000000       0.000000       0.000000   25172.942810  -31793.793669    1075.726313 
  900000     306.884830   -4584.789105   -5500.469255       0.000000       0.000000       0.000000   25218.608439  -31794.446932    1075.369239 
  910000     312.528552   -4601.313127   -5533.832965       0.000000       0.000000       0.000000   25155.136357  -31790.269127    1101.299805 
  920000     308.373677   -4589.865347   -5509.987905       0.000000       0.000000       0.000000   25262.662076  -31790.645681    1017.995700 
  930000     288.076642   -4690.056305   -5549.616757       0.000000       0.000000       0.000000   25170.992838  -31794.040807    1073.431213 
  940000     313.449624   -4610.672491   -5545.940616       0.000000       0.000000       0.000000   25076.423531  -31793.922471    1171.558324 
  950000     299.545625   -4662.286995   -5556.068495       0.000000       0.000000       0.000000   25101.080230  -31796.821471    1139.672746 
  960000     308.038917   -4652.897945   -5572.021649       0.000000       0.000000       0.000000   25088.755849  -31794.633978    1133.856480 
  970000     295.644814   -4692.050497   -5574.192791       0.000000       0.000000       0.000000   25105.668720  -31792.578298    1112.716787 
  980000     296.667975   -4698.479265   -5583.674458       0.000000       0.000000       0.000000   25104.149472  -31792.693907    1104.869976 
  990000     313.181366   -4544.496216   -5478.963913       0.000000       0.000000       0.000000   25219.993823  -31789.816565    1090.858829 
 1000000     294.414636   -4639.638032   -5518.109732       0.000000       0.000000       0.000000   25118.304096  -31794.235336    1157.821507 
 1000075     302.772758   -4624.122976   -5527.533564       0.000000       0.000000       0.000000   25156.033409  -31792.814892    1109.247918 
Loop time of 1970.07 on 8 procs for 1000000 steps with 1503 atoms

Performance: 43.856 ns/day, 0.547 hours/ns, 507.596 timesteps/s
99.2% CPU use with 8 MPI tasks x 1 OpenMP threads

MPI task timing breakdown:
Section |  min time  |  avg time  |  max time  |%varavg| %total
---------------------------------------------------------------
Pair    | 974.06     | 982.49     | 993.74     |  21.8 | 49.87
Bond    | 0.27588    | 0.31709    | 0.35227    |   4.6 |  0.02
Kspace  | 519.7      | 530.93     | 540.61     |  29.6 | 26.95
Neigh   | 70.401     | 70.439     | 70.485     |   0.3 |  3.58
Comm    | 90.759     | 94.684     | 98.754     |  25.3 |  4.81
Output  | 0.0041992  | 0.0048268  | 0.0090841  |   2.3 |  0.00
Modify  | 267.95     | 280.15     | 289.81     |  37.0 | 14.22
Other   |            | 11.06      |            |       |  0.56

Nlocal:    187.875 ave 201 max 179 min
Histogram: 1 1 2 0 2 0 1 0 0 1
Nghost:    4601.25 ave 4670 max 4552 min
Histogram: 1 0 2 2 0 1 1 0 0 1
Neighs:    66889.9 ave 72967 max 64292 min
Histogram: 4 0 0 1 2 0 0 0 0 1

Total # of neighbors = 535119
Ave neighs/atom = 356.034
Ave special neighs/atom = 2
Neighbor list builds = 43453
Dangerous builds = 0
PPPM initialization ...
  using 12-bit tables for long-range coulomb (src/kspace.cpp:332)
  G vector (1/distance) = 0.312863
  grid = 24 24 24
  stencil order = 5
  estimated absolute RMS force accuracy = 0.00187927
  estimated relative force accuracy = 5.65937e-06
  using double precision MKL FFT
  3d grid and FFT values/proc = 6859 1728
Neighbor list info ...
  update every 1 steps, delay 10 steps, check yes
  max neighbors/atom: 2000, page size: 100000
  master list distance cutoff = 12
  ghost atom cutoff = 12
  binsize = 6, bins = 5 5 5
  3 neighbor lists, perpetual/occasional/extra = 3 0 0
  (1) pair lj/cut/coul/long, perpetual, skip from (3)
      attributes: half, newton on
      pair build: skip
      stencil: none
      bin: none
  (2) pair lj/cut/coul/long/soft, perpetual, skip from (3)
      attributes: half, newton on
      pair build: skip
      stencil: none
      bin: none
  (3) neighbor class addition, perpetual
      attributes: half, newton on
      pair build: half/bin/newton
      stencil: half/bin/3d/newton
      bin: standard
Setting up Verlet run ...
  Unit style    : real
  Current step  : 0
  Time step     : 1
Per MPI rank memory allocation (min/avg/max) = 10.91 | 10.91 | 10.91 Mbytes
Step Temp TotEng PotEng E_bond E_angle E_dihed E_coul E_long E_vdwl 
       0     302.772758   -4624.116544   -5527.527133       0.000000       0.000000       0.000000   24930.071336  -31566.846387    1109.247918 
   10000     308.871381   -4616.121114   -5537.728718       0.000000       0.000000       0.000000   24970.710905  -31567.453758    1059.014135 
   20000     301.976652   -4641.334596   -5542.369770       0.000000       0.000000       0.000000   24868.339969  -31564.535644    1153.825905 
   30000     287.852787   -4713.209148   -5572.101663       0.000000       0.000000       0.000000   24857.861266  -31565.813194    1135.850264 
   40000     301.795350   -4658.337712   -5558.831919       0.000000       0.000000       0.000000   24888.900489  -31564.206017    1116.473609 
   50000     306.293315   -4622.223458   -5536.138652       0.000000       0.000000       0.000000   24939.103285  -31564.197442    1088.955505 
   60000     303.579170   -4590.342571   -5496.159325       0.000000       0.000000       0.000000   24973.144718  -31563.243326    1093.939283 
   70000     298.615414   -4644.520794   -5535.526736       0.000000       0.000000       0.000000   24959.737742  -31567.311473    1072.046995 
   80000     296.519174   -4602.999874   -5487.751076       0.000000       0.000000       0.000000   25041.991146  -31565.469648    1035.727426 
   90000     306.040423   -4663.044211   -5576.204827       0.000000       0.000000       0.000000   24906.569367  -31567.370569    1084.596374 
  100000     304.229814   -4537.297857   -5445.055995       0.000000       0.000000       0.000000   25111.274305  -31565.468300    1009.138000 
  110000     305.503488   -4601.786911   -5513.345425       0.000000       0.000000       0.000000   25006.706738  -31562.734059    1042.681896 
  120000     319.101052   -4590.416087   -5542.546888       0.000000       0.000000       0.000000   24913.215345  -31567.665802    1111.903569 
  130000     304.575149   -4653.836231   -5562.624778       0.000000       0.000000       0.000000   24852.446931  -31566.766281    1151.694572 
  140000     300.876960   -4626.775387   -5524.529310       0.000000       0.000000       0.000000   24992.782680  -31566.505303    1049.193313 
  150000     303.586538   -4615.581275   -5521.420012       0.000000       0.000000       0.000000   24896.957448  -31559.408559    1141.031098 
  160000     298.365234   -4637.482657   -5527.742115       0.000000       0.000000       0.000000   24964.783297  -31566.238507    1073.713094 
  170000     296.994277   -4597.048623   -5483.217434       0.000000       0.000000       0.000000   25004.681689  -31565.398328    1077.499205 
  180000     275.908717   -4719.925290   -5543.179199       0.000000       0.000000       0.000000   24957.852349  -31568.169530    1067.137982 
  190000     301.585358   -4637.523429   -5537.391064       0.000000       0.000000       0.000000   24946.534052  -31565.111223    1081.186107 
  200000     294.201192   -4661.078363   -5538.913192       0.000000       0.000000       0.000000   24909.205395  -31563.907188    1115.788602 
  210000     312.646982   -4541.598957   -5474.472164       0.000000       0.000000       0.000000   24973.818177  -31567.599345    1119.309004 
  220000     311.011773   -4559.975663   -5487.969751       0.000000       0.000000       0.000000   24980.713517  -31568.439507    1099.756240 
  230000     297.488513   -4655.649556   -5543.293061       0.000000       0.000000       0.000000   24935.767041  -31562.987649    1083.927547 
  240000     293.826063   -4696.709312   -5573.424833       0.000000       0.000000       0.000000   24907.883606  -31565.668235    1084.359796 
  250000     298.118586   -4634.713291   -5524.236802       0.000000       0.000000       0.000000   24988.402071  -31564.655275    1052.016403 
  260000     302.299352   -4636.764364   -5538.762409       0.000000       0.000000       0.000000   24893.572597  -31567.106882    1134.771877 
  270000     289.903668   -4711.976400   -5576.988314       0.000000       0.000000       0.000000   24831.039507  -31566.039847    1158.012025 
  280000     284.974368   -4664.004068   -5514.307981       0.000000       0.000000       0.000000   24866.617780  -31562.504320    1181.578560 
  290000     304.142334   -4656.004974   -5563.502091       0.000000       0.000000       0.000000   24876.966763  -31566.952975    1126.484121 
  300000     296.881682   -4620.729877   -5506.562728       0.000000       0.000000       0.000000   25024.107601  -31567.566477    1036.896148 
  310000     293.161393   -4659.212177   -5533.944460       0.000000       0.000000       0.000000   24925.479270  -31566.265922    1106.842191 
  320000     297.892958   -4652.976342   -5541.826628       0.000000       0.000000       0.000000   24947.430176  -31563.919921    1074.663117 
  330000     287.927743   -4700.813680   -5559.929847       0.000000       0.000000       0.000000   24935.649069  -31566.391261    1070.812345 
  340000     313.330207   -4594.087526   -5528.999333       0.000000       0.000000       0.000000   24964.537805  -31566.718648    1073.181510 
  350000     291.440062   -4586.420471   -5456.016666       0.000000       0.000000       0.000000   24936.409697  -31566.198713    1173.772351 
  360000     320.484301   -4604.063561   -5560.321688       0.000000       0.000000       0.000000   24948.750840  -31567.074016    1058.001488 
  370000     298.706240   -4634.884185   -5526.161133       0.000000       0.000000       0.000000   24968.409464  -31566.609907    1072.039310 
  380000     308.816966   -4554.333005   -5475.778245       0.000000       0.000000       0.000000   24924.018586  -31564.255113    1164.458282 
  390000     307.822273   -4619.036176   -5537.513461       0.000000       0.000000       0.000000   24836.407769  -31565.889546    1191.968315 
  400000     299.756943   -4633.331944   -5527.743972       0.000000       0.000000       0.000000   24989.093481  -31566.381110    1049.543656 
  410000     306.721004   -4613.240550   -5528.431879       0.000000       0.000000       0.000000   24923.541535  -31565.159680    1113.186267 
  420000     289.721144   -4692.007679   -5556.474982       0.000000       0.000000       0.000000   24984.682841  -31563.696022    1022.538199 
  430000     290.414226   -4708.454455   -5574.989769       0.000000       0.000000       0.000000   24883.532612  -31564.235148    1105.712767 
  440000     291.616469   -4635.315775   -5505.438331       0.000000       0.000000       0.000000   24971.236617  -31569.378794    1092.703846 
  450000     291.982067   -4610.184329   -5481.397752       0.000000       0.000000       0.000000   25042.651016  -31564.862903    1040.814135 
  460000     294.126516   -4659.790519   -5537.402530       0.000000       0.000000       0.000000   24900.518793  -31568.061756    1130.140434 
  470000     306.425673   -4588.483733   -5502.793857       0.000000       0.000000       0.000000   24979.810848  -31564.577761    1081.973056 
  480000     289.538545   -4624.844559   -5488.767023       0.000000       0.000000       0.000000   25043.749557  -31564.622330    1032.105749 
  490000     307.730856   -4553.149288   -5471.353803       0.000000       0.000000       0.000000   25052.572115  -31565.238820    1041.312902 
  500000     305.016310   -4573.241242   -5483.346121       0.000000       0.000000       0.000000   25014.498600  -31567.917676    1070.072955 
  510000     293.363404   -4615.747996   -5491.083041       0.000000       0.000000       0.000000   24984.961865  -31563.170695    1087.125790 
  520000     284.992459   -4690.255458   -5540.613352       0.000000       0.000000       0.000000   24965.409462  -31567.451790    1061.428975 
  530000     292.659229   -4621.615859   -5494.849792       0.000000       0.000000       0.000000   24937.736474  -31565.439267    1132.853001 
  540000     290.873119   -4600.161769   -5468.066322       0.000000       0.000000       0.000000   25003.567613  -31566.025064    1094.391130 
  550000     307.602660   -4603.833250   -5521.655256       0.000000       0.000000       0.000000   24932.249688  -31565.261727    1111.356783 
  560000     291.796215   -4595.176668   -5465.835546       0.000000       0.000000       0.000000   24968.525012  -31563.828271    1129.467713 
  570000     312.180136   -4587.524143   -5519.004378       0.000000       0.000000       0.000000   24905.889326  -31566.070168    1141.176463 
  580000     307.020099   -4542.667120   -5458.750884       0.000000       0.000000       0.000000   25034.849255  -31563.932762    1070.332622 
  590000     285.987403   -4646.618039   -5499.944638       0.000000       0.000000       0.000000   24954.062195  -31562.259965    1108.253133 
  600000     302.920994   -4648.125624   -5551.978518       0.000000       0.000000       0.000000   24954.110584  -31568.954005    1062.864904 
  610000     296.473392   -4681.535758   -5566.150356       0.000000       0.000000       0.000000   24925.958645  -31568.251052    1076.142052 
  620000     298.981193   -4583.696771   -5475.794122       0.000000       0.000000       0.000000   25003.290396  -31564.241933    1085.157414 
  630000     295.992246   -4610.607939   -5493.786897       0.000000       0.000000       0.000000   24944.056459  -31561.527373    1123.684018 
  640000     293.082866   -4663.472925   -5537.970902       0.000000       0.000000       0.000000   24960.586574  -31563.001506    1064.444029 
  650000     302.547710   -4588.632373   -5491.371466       0.000000       0.000000       0.000000   24990.180966  -31565.521579    1083.969148 
  660000     294.063399   -4616.155599   -5493.579282       0.000000       0.000000       0.000000   24959.698886  -31564.727483    1111.449315 
  670000     292.533326   -4612.125164   -5484.983430       0.000000       0.000000       0.000000   24953.340554  -31564.080222    1125.756239 
  680000     301.468259   -4641.275466   -5540.793700       0.000000       0.000000       0.000000   24953.701352  -31566.802237    1072.307184 
  690000     297.668151   -4647.198660   -5535.378168       0.000000       0.000000       0.000000   24970.759725  -31565.636356    1059.498463 
  700000     296.768115   -4608.905738   -5494.399728       0.000000       0.000000       0.000000   24889.100120  -31565.374152    1181.874304 
  710000     307.362449   -4625.323689   -5542.428953       0.000000       0.000000       0.000000   24882.776939  -31564.847576    1139.641685 
  720000     318.328876   -4556.348572   -5506.175363       0.000000       0.000000       0.000000   24976.288524  -31567.573743    1085.109855 
  730000     298.979667   -4599.900803   -5491.993600       0.000000       0.000000       0.000000   24979.383936  -31566.687392    1095.309856 
  740000     297.573117   -4675.540747   -5563.436693       0.000000       0.000000       0.000000   24885.743124  -31565.679108    1116.499292 
  750000     295.768817   -4609.676214   -5492.188506       0.000000       0.000000       0.000000   25104.730651  -31566.506927     969.587770 
  760000     298.894922   -4595.320456   -5487.160391       0.000000       0.000000       0.000000   25053.571999  -31568.471697    1027.739307 
  770000     290.066189   -4660.966565   -5526.463408       0.000000       0.000000       0.000000   24977.431945  -31566.323497    1062.428144 
  780000     299.803502   -4667.702414   -5562.253362       0.000000       0.000000       0.000000   24909.054751  -31567.226810    1095.918697 
  790000     306.223983   -4637.186177   -5550.894497       0.000000       0.000000       0.000000   24914.511807  -31567.486214    1102.079910 
  800000     298.140067   -4664.632095   -5554.219701       0.000000       0.000000       0.000000   24900.997473  -31569.349200    1114.132026 
  810000     291.626032   -4657.455740   -5527.606828       0.000000       0.000000       0.000000   24969.789544  -31567.928216    1070.531843 
  820000     309.060419   -4625.886227   -5548.057882       0.000000       0.000000       0.000000   24921.048608  -31566.775776    1097.669287 
  830000     299.915335   -4635.380239   -5530.264873       0.000000       0.000000       0.000000   24984.481865  -31564.692277    1049.945539 
  840000     297.632694   -4679.652895   -5567.726608       0.000000       0.000000       0.000000   24910.311069  -31566.315095    1088.277419 
  850000     291.765762   -4653.056900   -5523.624914       0.000000       0.000000       0.000000   24917.536277  -31564.050522    1122.889331 
  860000     297.834607   -4610.960133   -5499.636312       0.000000       0.000000       0.000000   25024.891088  -31567.453000    1042.925599 
  870000     307.963443   -4587.264896   -5506.163403       0.000000       0.000000       0.000000   24986.199643  -31566.407626    1074.044580 
  880000     299.084932   -4637.104512   -5529.511399       0.000000       0.000000       0.000000   25012.716820  -31566.214834    1023.986616 
  890000     299.601114   -4656.241706   -5550.188771       0.000000       0.000000       0.000000   24926.655683  -31563.370579    1086.526126 
  900000     321.090581   -4556.275242   -5514.342384       0.000000       0.000000       0.000000   25028.789025  -31568.756408    1025.624999 
  910000     299.522547   -4614.957503   -5508.670142       0.000000       0.000000       0.000000   24915.036934  -31568.010003    1144.302928 
  920000     291.017624   -4641.612906   -5509.948633       0.000000       0.000000       0.000000   25036.021316  -31563.836998    1017.867048 
  930000     297.092629   -4695.424424   -5581.886694       0.000000       0.000000       0.000000   24819.612684  -31565.430461    1163.931082 
  940000     286.083516   -4664.062487   -5517.675866       0.000000       0.000000       0.000000   24998.772019  -31562.901563    1046.453678 
  950000     300.798805   -4613.490543   -5511.011267       0.000000       0.000000       0.000000   24978.884161  -31562.873739    1072.978311 
  960000     305.795608   -4609.810292   -5522.240432       0.000000       0.000000       0.000000   24915.226993  -31565.189530    1127.722105 
  970000     298.038652   -4583.900749   -5473.185753       0.000000       0.000000       0.000000   25071.368169  -31561.061716    1016.507794 
  980000     294.085090   -4611.768436   -5489.256839       0.000000       0.000000       0.000000   25061.313641  -31565.143619    1014.573139 
  990000     308.077169   -4641.429297   -5560.667138       0.000000       0.000000       0.000000   24905.695968  -31566.387942    1100.024836 
 1000000     286.306125   -4703.247169   -5557.524768       0.000000       0.000000       0.000000   24902.557889  -31567.027015    1106.944357 
 1010000     304.068255   -4621.252733   -5528.528814       0.000000       0.000000       0.000000   24948.046312  -31566.206389    1089.631262 
 1020000     296.524181   -4664.265725   -5549.031867       0.000000       0.000000       0.000000   24920.651364  -31564.662544    1094.979313 
 1030000     305.087630   -4550.910977   -5461.228659       0.000000       0.000000       0.000000   24992.394426  -31562.586231    1108.963146 
 1040000     290.409169   -4642.098142   -5508.618367       0.000000       0.000000       0.000000   24987.201743  -31565.686003    1069.865893 
 1050000     289.610840   -4632.869403   -5497.007579       0.000000       0.000000       0.000000   24947.761220  -31563.913406    1119.144607 
 1060000     293.942123   -4622.800136   -5499.861955       0.000000       0.000000       0.000000   24977.205464  -31568.020463    1090.953044 
 1070000     299.145076   -4614.477513   -5507.063855       0.000000       0.000000       0.000000   24908.021026  -31565.720626    1150.635744 
 1080000     309.478630   -4627.992587   -5551.412094       0.000000       0.000000       0.000000   24948.839312  -31564.989972    1064.738566 
 1090000     295.564939   -4665.827392   -5547.731355       0.000000       0.000000       0.000000   24878.353388  -31564.367155    1138.282412 
 1100000     304.018705   -4649.209220   -5556.337453       0.000000       0.000000       0.000000   24927.298865  -31567.523449    1083.887131 
 1110000     297.761268   -4571.758107   -5460.215458       0.000000       0.000000       0.000000   25010.838643  -31561.470167    1090.416067 
 1120000     289.325138   -4611.282611   -5474.568314       0.000000       0.000000       0.000000   25016.591994  -31566.630579    1075.470271 
 1130000     293.071849   -4691.356952   -5565.822058       0.000000       0.000000       0.000000   24928.888524  -31567.949062    1073.238480 
 1140000     309.776313   -4640.913937   -5565.221668       0.000000       0.000000       0.000000   24890.779279  -31567.424939    1111.423993 
 1150000     290.590212   -4638.881587   -5505.942005       0.000000       0.000000       0.000000   25012.313227  -31567.909547    1049.654315 
 1160000     291.826055   -4668.738175   -5539.486090       0.000000       0.000000       0.000000   24915.197866  -31563.205734    1108.521778 
 1170000     280.851323   -4710.559573   -5548.561185       0.000000       0.000000       0.000000   24974.600698  -31564.872350    1041.710467 
 1180000     299.774415   -4588.771427   -5483.235586       0.000000       0.000000       0.000000   25080.036671  -31562.786241     999.513984 
 1190000     306.069605   -4575.688775   -5488.936465       0.000000       0.000000       0.000000   25050.857559  -31565.577179    1025.783156 
 1200000     294.304794   -4605.046180   -5483.190135       0.000000       0.000000       0.000000   25005.623665  -31561.336968    1072.523168 
 1210000     307.689958   -4584.091497   -5502.173982       0.000000       0.000000       0.000000   24928.393733  -31567.783763    1137.216048 
 1220000     300.549973   -4614.016571   -5510.794833       0.000000       0.000000       0.000000   24956.418769  -31566.784966    1099.571364 
 1230000     303.456578   -4603.514418   -5508.965383       0.000000       0.000000       0.000000   24924.481941  -31563.706102    1130.258778 
 1240000     301.463577   -4554.126271   -5453.630536       0.000000       0.000000       0.000000   24943.278423  -31559.006099    1162.097141 
 1250000     305.037132   -4690.345375   -5600.512381       0.000000       0.000000       0.000000   24816.786150  -31568.499426    1151.200896 
 1260000     301.508389   -4616.071271   -5515.709245       0.000000       0.000000       0.000000   24939.567434  -31565.698114    1110.421435 
 1270000     301.766104   -4631.446917   -5531.853859       0.000000       0.000000       0.000000   24953.033668  -31562.634309    1077.746782 
 1280000     295.286851   -4639.219743   -5520.293949       0.000000       0.000000       0.000000   24936.804060  -31568.737361    1111.639352 
 1290000     301.036213   -4647.149087   -5545.378189       0.000000       0.000000       0.000000   24943.863836  -31565.793845    1076.551819 
 1300000     302.301861   -4572.179454   -5474.184983       0.000000       0.000000       0.000000   24949.387702  -31562.824675    1139.251990 
 1310000     291.400640   -4666.131113   -5535.609678       0.000000       0.000000       0.000000   24913.664406  -31564.416700    1115.142616 
 1320000     292.100593   -4651.609928   -5523.177009       0.000000       0.000000       0.000000   24917.648542  -31562.746760    1121.921208 
 1330000     309.502983   -4569.919823   -5493.411995       0.000000       0.000000       0.000000   25050.383602  -31563.862615    1020.067018 
 1340000     315.194938   -4640.921508   -5581.397283       0.000000       0.000000       0.000000   24882.531927  -31569.285224    1105.356014 
 1350000     313.400690   -4578.289326   -5513.411441       0.000000       0.000000       0.000000   24911.594826  -31565.970285    1140.964019 
 1360000     297.353783   -4635.164649   -5522.406149       0.000000       0.000000       0.000000   24999.972341  -31565.681092    1043.302602 
 1370000     313.206738   -4644.649231   -5579.192632       0.000000       0.000000       0.000000   24788.983636  -31567.349309    1199.173040 
 1380000     298.962622   -4672.469491   -5564.511430       0.000000       0.000000       0.000000   24853.390881  -31566.903635    1149.001325 
 1390000     291.024563   -4674.044277   -5542.400708       0.000000       0.000000       0.000000   24991.751908  -31567.933485    1033.780868 
 1400000     307.352444   -4636.532034   -5553.607446       0.000000       0.000000       0.000000   24903.045594  -31566.330202    1109.677162 
 1410000     301.460417   -4622.127239   -5521.622076       0.000000       0.000000       0.000000   24913.793503  -31562.811178    1127.395598 
 1420000     285.985344   -4650.113374   -5503.433829       0.000000       0.000000       0.000000   24976.165082  -31567.628977    1088.030066 
 1430000     290.492301   -4625.482894   -5492.251168       0.000000       0.000000       0.000000   24921.581420  -31563.928664    1150.096077 
 1440000     309.124589   -4601.385691   -5523.748816       0.000000       0.000000       0.000000   24935.033392  -31565.095181    1106.312973 
 1450000     298.328570   -4607.322355   -5497.472416       0.000000       0.000000       0.000000   24994.194745  -31562.232111    1070.564949 
 1460000     293.224735   -4637.987010   -5512.908294       0.000000       0.000000       0.000000   24955.789522  -31564.355844    1095.658028 
 1470000     304.381290   -4643.004881   -5551.214991       0.000000       0.000000       0.000000   24905.540498  -31569.080911    1112.325422 
 1480000     308.394707   -4663.783522   -5583.968832       0.000000       0.000000       0.000000   24865.393108  -31564.608884    1115.246945 
 1490000     293.349576   -4677.317904   -5552.611686       0.000000       0.000000       0.000000   24939.927527  -31567.579754    1075.040541 
 1500000     282.340338   -4713.989874   -5556.434395       0.000000       0.000000       0.000000   24898.790660  -31564.960995    1109.735940 
 1510000     293.812591   -4698.320432   -5574.995756       0.000000       0.000000       0.000000   24847.335036  -31568.179222    1145.848430 
 1520000     300.688471   -4646.347746   -5543.539259       0.000000       0.000000       0.000000   24962.774621  -31566.103746    1059.789867 
 1530000     291.570110   -4682.063884   -5552.048113       0.000000       0.000000       0.000000   24923.495225  -31565.153752    1089.610413 
 1540000     310.514079   -4538.074383   -5464.583454       0.000000       0.000000       0.000000   25032.888724  -31563.606435    1066.134257 
 1550000     294.490662   -4604.733474   -5483.432021       0.000000       0.000000       0.000000   25056.402189  -31567.901707    1028.067498 
 1560000     289.668121   -4687.670806   -5551.979898       0.000000       0.000000       0.000000   24882.295471  -31562.944406    1128.669038 
 1570000     297.364179   -4700.581480   -5587.854000       0.000000       0.000000       0.000000   24748.002099  -31565.794783    1229.938683 
 1580000     310.369768   -4651.718280   -5577.796756       0.000000       0.000000       0.000000   24879.913408  -31569.975837    1112.265674 
 1590000     290.184285   -4639.644785   -5505.494002       0.000000       0.000000       0.000000   24930.371748  -31564.601359    1128.735610 
 1600000     293.543824   -4627.267415   -5503.140793       0.000000       0.000000       0.000000   24982.044613  -31567.338066    1082.152661 
 1610000     298.826808   -4627.114568   -5518.751267       0.000000       0.000000       0.000000   24977.660723  -31566.433820    1070.021829 
 1620000     297.326528   -4638.983494   -5526.143669       0.000000       0.000000       0.000000   24943.060581  -31567.230130    1098.025880 
 1630000     304.215857   -4607.489304   -5515.205799       0.000000       0.000000       0.000000   24979.549823  -31568.021035    1073.265413 
 1640000     294.973698   -4576.854979   -5456.994804       0.000000       0.000000       0.000000   25023.773765  -31568.024182    1087.255613 
 1650000     312.753563   -4640.312251   -5573.503473       0.000000       0.000000       0.000000   24877.824760  -31561.577220    1110.248987 
 1660000     303.589158   -4597.793696   -5503.640250       0.000000       0.000000       0.000000   25022.102240  -31565.096382    1039.353891 
 1670000     294.221306   -4644.734983   -5522.629827       0.000000       0.000000       0.000000   24898.903908  -31561.384662    1139.850927 
 1680000     291.305301   -4630.614881   -5499.808974       0.000000       0.000000       0.000000   24949.819416  -31565.017945    1115.389555 
 1690000     294.180332   -4648.404536   -5526.177122       0.000000       0.000000       0.000000   24908.478913  -31565.363218    1130.707183 
 1700000     304.371029   -4594.352134   -5502.531628       0.000000       0.000000       0.000000   25004.054826  -31568.221459    1061.635005 
 1710000     294.853906   -4669.574037   -5549.356426       0.000000       0.000000       0.000000   24894.415061  -31566.302038    1122.530550 
 1720000     303.026044   -4581.460921   -5485.627263       0.000000       0.000000       0.000000   24999.181439  -31564.622607    1079.813904 
 1730000     304.928491   -4648.071714   -5557.914557       0.000000       0.000000       0.000000   24860.081561  -31567.307800    1149.311681 
 1740000     310.031172   -4597.114013   -5522.182190       0.000000       0.000000       0.000000   24970.127105  -31565.648972    1073.339677 
 1750000     300.111370   -4687.613285   -5583.082847       0.000000       0.000000       0.000000   24857.077509  -31564.063872    1123.903516 
 1760000     287.095733   -4663.036701   -5519.670325       0.000000       0.000000       0.000000   24898.764181  -31568.119371    1149.684866 
 1770000     287.507376   -4669.889072   -5527.750953       0.000000       0.000000       0.000000   24959.039031  -31564.293667    1077.503683 
 1780000     291.768705   -4677.666439   -5548.243234       0.000000       0.000000       0.000000   24923.115535  -31565.474178    1094.115409 
 1790000     290.033876   -4724.203968   -5589.604397       0.000000       0.000000       0.000000   24805.976778  -31566.655170    1171.073994 
 1800000     317.508920   -4581.025476   -5528.405690       0.000000       0.000000       0.000000   24919.573255  -31567.183423    1119.204479 
 1810000     296.166421   -4691.772022   -5575.470683       0.000000       0.000000       0.000000   24835.608533  -31566.237753    1155.158536 
 1820000     306.461819   -4624.768995   -5539.186970       0.000000       0.000000       0.000000   24926.435738  -31565.885597    1100.262889 
 1830000     296.473917   -4598.036424   -5482.652588       0.000000       0.000000       0.000000   24916.965283  -31566.263434    1166.645563 
 1840000     304.270803   -4565.811303   -5473.691745       0.000000       0.000000       0.000000   25090.461307  -31563.937206     999.784154 
 1850000     299.516462   -4622.921645   -5516.616127       0.000000       0.000000       0.000000   24961.307749  -31564.289910    1086.366034 
 1860000     299.626434   -4607.269036   -5501.291650       0.000000       0.000000       0.000000   24989.104977  -31566.421350    1076.024723 
 1870000     298.144435   -4691.377487   -5580.978127       0.000000       0.000000       0.000000   24893.466308  -31566.309798    1091.865363 
 1880000     296.201981   -4641.516835   -5525.321599       0.000000       0.000000       0.000000   24893.170223  -31569.217778    1150.725955 
 1890000     306.495577   -4596.209782   -5510.728483       0.000000       0.000000       0.000000   24975.691517  -31565.073632    1078.653633 
 1900000     299.946112   -4540.250038   -5435.226505       0.000000       0.000000       0.000000   25141.417236  -31564.615391     987.971650 
 1910000     300.540847   -4618.665701   -5515.416734       0.000000       0.000000       0.000000   24955.485347  -31564.053235    1093.151155 
 1920000     303.102426   -4541.420240   -5445.814489       0.000000       0.000000       0.000000   25056.063613  -31564.562081    1062.683979 
 1930000     305.578957   -4656.190965   -5567.974664       0.000000       0.000000       0.000000   24902.986990  -31567.554049    1096.592395 
 1940000     286.539856   -4596.022252   -5450.997256       0.000000       0.000000       0.000000   25005.125211  -31563.457418    1107.334950 
 1950000     296.397118   -4634.124992   -5518.512004       0.000000       0.000000       0.000000   24954.097051  -31564.578173    1091.969118 
 1960000     296.851795   -4675.984913   -5561.728584       0.000000       0.000000       0.000000   24903.487835  -31567.042177    1101.825758 
 1970000     311.310095   -4552.743059   -5481.627276       0.000000       0.000000       0.000000   24990.093315  -31563.737583    1092.016992 
 1980000     299.523936   -4593.806284   -5487.523066       0.000000       0.000000       0.000000   24950.976039  -31562.233390    1123.734285 
 1990000     320.070984   -4521.890258   -5476.915134       0.000000       0.000000       0.000000   25023.372897  -31566.696630    1066.408599 
 2000000     307.098230   -4600.947342   -5517.264234       0.000000       0.000000       0.000000   24921.215712  -31569.094769    1130.614823 
 2010000     301.345605   -4605.509339   -5504.661600       0.000000       0.000000       0.000000   24989.771832  -31564.479045    1070.045612 
 2020000     302.926127   -4652.529157   -5556.397366       0.000000       0.000000       0.000000   24957.984066  -31565.932384    1051.550953 
 2030000     300.979794   -4629.153393   -5527.214152       0.000000       0.000000       0.000000   24989.425690  -31562.057068    1045.417225 
 2040000     311.594010   -4638.421288   -5568.152647       0.000000       0.000000       0.000000   24897.893481  -31568.734046    1102.687919 
 2050000     302.038160   -4681.095545   -5582.314245       0.000000       0.000000       0.000000   24843.028120  -31572.355315    1147.012950 
 2060000     297.153653   -4635.791775   -5522.436130       0.000000       0.000000       0.000000   24979.079713  -31565.260178    1063.744335 
 2070000     300.163690   -4646.501498   -5542.127173       0.000000       0.000000       0.000000   24909.492213  -31565.398363    1113.778977 
 2080000     284.256214   -4731.019633   -5579.180727       0.000000       0.000000       0.000000   24875.791890  -31565.537853    1110.565236 
 2090000     285.124218   -4626.005416   -5476.756450       0.000000       0.000000       0.000000   25003.359593  -31562.879488    1082.763445 
 2100000     308.296322   -4556.698282   -5476.590030       0.000000       0.000000       0.000000   25042.807831  -31565.435991    1046.038130 
 2110000     298.872917   -4578.628098   -5470.402376       0.000000       0.000000       0.000000   24968.612515  -31563.778062    1124.763172 
 2120000     292.938082   -4609.376139   -5483.442111       0.000000       0.000000       0.000000   24999.986083  -31568.959622    1085.531428 
 2130000     290.684478   -4641.160071   -5508.501759       0.000000       0.000000       0.000000   24955.003800  -31563.490735    1099.985175 
 2140000     302.343243   -4608.307411   -5510.436415       0.000000       0.000000       0.000000   24990.029860  -31565.811594    1065.345318 
 2150000     300.342058   -4683.242110   -5579.399997       0.000000       0.000000       0.000000   24896.476691  -31564.270330    1088.393642 
 2160000     306.002550   -4597.235688   -5510.283301       0.000000       0.000000       0.000000   25008.474597  -31567.267114    1048.509215 
 2170000     305.114118   -4570.338541   -5480.735258       0.000000       0.000000       0.000000   25009.768859  -31565.931088    1075.426971 
 2180000     306.883928   -4603.975482   -5519.652940       0.000000       0.000000       0.000000   24972.180923  -31568.038284    1076.204421 
 2190000     305.077396   -4516.194265   -5426.481410       0.000000       0.000000       0.000000   25122.367800  -31561.786369    1012.937159 
 2200000     294.803119   -4669.721696   -5549.352549       0.000000       0.000000       0.000000   24932.295060  -31567.038578    1085.390970 
 2210000     307.935410   -4554.639548   -5473.454411       0.000000       0.000000       0.000000   24970.348581  -31561.287251    1117.484259 
 2220000     286.836696   -4671.850174   -5527.710885       0.000000       0.000000       0.000000   25001.549194  -31565.829225    1036.569146 
 2230000     297.059416   -4636.785150   -5523.148319       0.000000       0.000000       0.000000   24936.014495  -31567.956932    1108.794119 
 2240000     299.222810   -4643.753186   -5536.571470       0.000000       0.000000       0.000000   24902.060177  -31564.863711    1126.232065 
 2250000     297.416359   -4611.594907   -5499.023120       0.000000       0.000000       0.000000   24940.963301  -31563.949244    1123.962824 
 2260000     287.622165   -4632.645452   -5490.849840       0.000000       0.000000       0.000000   25010.491795  -31560.586692    1059.245057 
 2270000     279.415866   -4607.938511   -5441.657019       0.000000       0.000000       0.000000   25056.135414  -31561.971443    1064.179010 
 2280000     304.710468   -4530.678573   -5439.870882       0.000000       0.000000       0.000000   25021.912382  -31564.345840    1102.562576 
 2290000     307.853080   -4625.351984   -5543.921191       0.000000       0.000000       0.000000   24934.296752  -31567.985420    1089.767478 
 2300000     298.624348   -4655.045511   -5546.078111       0.000000       0.000000       0.000000   24877.107459  -31567.727082    1144.541512 
 2310000     311.742010   -4603.974865   -5534.147826       0.000000       0.000000       0.000000   24945.644850  -31568.594815    1088.802139 
 2320000     300.461525   -4582.688825   -5479.203178       0.000000       0.000000       0.000000   25014.605365  -31566.181844    1072.373302 
 2330000     294.362654   -4628.124766   -5506.441362       0.000000       0.000000       0.000000   24931.125941  -31567.578507    1130.011205 
 2340000     301.397516   -4608.585764   -5507.892917       0.000000       0.000000       0.000000   25020.147803  -31564.349980    1036.309259 
 2350000     298.733799   -4676.078099   -5567.437279       0.000000       0.000000       0.000000   24897.354287  -31566.620060    1101.828495 
 2360000     306.608020   -4654.227883   -5569.082092       0.000000       0.000000       0.000000   24918.621457  -31566.197144    1078.493595 
 2370000     302.179771   -4572.402723   -5474.043963       0.000000       0.000000       0.000000   25010.623005  -31558.344315    1073.677347 
 2380000     297.740865   -4658.350973   -5546.747445       0.000000       0.000000       0.000000   24996.898443  -31566.341053    1022.695166 
 2390000     299.328235   -4621.707317   -5514.840168       0.000000       0.000000       0.000000   24979.864337  -31569.019901    1074.315395 
 2400000     303.853750   -4649.725156   -5556.361199       0.000000       0.000000       0.000000   24879.087743  -31565.219412    1129.770471 
 2410000     294.089100   -4655.348120   -5532.848488       0.000000       0.000000       0.000000   24943.424709  -31559.541465    1083.268268 
 2420000     306.711693   -4625.521974   -5540.685520       0.000000       0.000000       0.000000   24946.779685  -31565.991986    1078.526781 
 2430000     302.479920   -4674.071100   -5576.607919       0.000000       0.000000       0.000000   24929.694981  -31564.958946    1058.656046 
 2440000     302.542479   -4626.677004   -5529.400488       0.000000       0.000000       0.000000   24905.463715  -31565.720089    1130.855886 
 2450000     311.081753   -4662.734766   -5590.937658       0.000000       0.000000       0.000000   24907.443265  -31565.764214    1067.383291 
 2460000     290.511068   -4635.292509   -5502.116777       0.000000       0.000000       0.000000   24984.282167  -31565.176326    1078.777382 
 2470000     306.047381   -4675.286470   -5588.467849       0.000000       0.000000       0.000000   24811.492995  -31565.016140    1165.055296 
 2480000     308.688516   -4573.801767   -5494.863740       0.000000       0.000000       0.000000   25033.599002  -31565.943769    1037.481026 
 2490000     301.850682   -4632.538217   -5533.197522       0.000000       0.000000       0.000000   24873.129221  -31562.244479    1155.917736 
 2500000     292.024400   -4685.548018   -5556.887753       0.000000       0.000000       0.000000   24922.262511  -31566.775362    1087.625098 
 2510000     297.092194   -4629.660145   -5516.121117       0.000000       0.000000       0.000000   24995.172697  -31564.915904    1053.622090 
 2520000     304.401739   -4614.852942   -5523.124069       0.000000       0.000000       0.000000   24993.211911  -31571.869604    1055.533623 
 2530000     290.063819   -4674.726563   -5540.216335       0.000000       0.000000       0.000000   24921.167706  -31564.868959    1103.484917 
 2540000     285.606750   -4696.623258   -5548.814068       0.000000       0.000000       0.000000   24898.042153  -31566.136125    1119.279905 
 2550000     283.770987   -4728.655704   -5575.368980       0.000000       0.000000       0.000000   24891.920696  -31561.222238    1093.932562 
 2560000     292.943068   -4664.051845   -5538.132693       0.000000       0.000000       0.000000   24907.113886  -31564.180405    1118.933826 
 2570000     303.888151   -4597.510309   -5504.248996       0.000000       0.000000       0.000000   24956.119224  -31566.405934    1106.037715 
 2580000     297.437108   -4536.427072   -5423.917197       0.000000       0.000000       0.000000   25036.337258  -31564.429159    1104.174704 
 2590000     288.887858   -4650.565639   -5512.546588       0.000000       0.000000       0.000000   24965.504899  -31566.809907    1088.758420 
 2600000     307.802733   -4650.150512   -5568.569495       0.000000       0.000000       0.000000   24942.382513  -31565.105911    1054.153903 
 2610000     303.298975   -4644.890684   -5549.871394       0.000000       0.000000       0.000000   24940.314216  -31569.140163    1078.954553 
 2620000     299.752665   -4569.765612   -5464.164873       0.000000       0.000000       0.000000   25038.743777  -31564.517576    1061.608926 
 2630000     294.189802   -4633.390811   -5511.191654       0.000000       0.000000       0.000000   24964.308838  -31567.152876    1091.652384 
 2640000     309.612343   -4608.847796   -5532.666275       0.000000       0.000000       0.000000   24874.071099  -31566.670337    1159.932963 
 2650000     303.945455   -4562.640944   -5469.550616       0.000000       0.000000       0.000000   25020.562108  -31556.611101    1066.498377 
 2660000     298.475990   -4616.585613   -5507.175544       0.000000       0.000000       0.000000   24967.987689  -31566.072007    1090.908774 
 2670000     305.156223   -4546.583372   -5457.105723       0.000000       0.000000       0.000000   25006.577152  -31562.895693    1099.212818 
 2680000     301.681754   -4606.179682   -5506.334942       0.000000       0.000000       0.000000   24980.314130  -31566.671023    1080.021951 
 2690000     304.511917   -4622.044379   -5530.644252       0.000000       0.000000       0.000000   24954.766392  -31567.596852    1082.186208 
 2700000     295.433506   -4657.688676   -5539.200470       0.000000       0.000000       0.000000   24858.344405  -31567.982510    1170.437635 
 2710000     307.844050   -4682.472178   -5601.014440       0.000000       0.000000       0.000000   24793.914413  -31567.577280    1172.648427 
 2720000     312.393377   -4597.223098   -5529.339601       0.000000       0.000000       0.000000   24889.769876  -31568.752710    1149.643234 
 2730000     312.634124   -4603.108032   -5535.942874       0.000000       0.000000       0.000000   24940.936320  -31566.022104    1089.142910 
 2740000     295.115310   -4653.009090   -5533.571455       0.000000       0.000000       0.000000   24933.874263  -31564.520974    1097.075256 
 2750000     305.483308   -4615.373722   -5526.872023       0.000000       0.000000       0.000000   24895.592715  -31566.471821    1144.007082 
 2760000     286.956766   -4624.733766   -5480.952743       0.000000       0.000000       0.000000   24991.929863  -31570.255689    1097.373083 
 2770000     303.455887   -4651.191590   -5556.640493       0.000000       0.000000       0.000000   24870.538792  -31570.140411    1142.961126 
 2780000     302.660764   -4570.299628   -5473.376050       0.000000       0.000000       0.000000   24983.996496  -31564.383297    1107.010751 
 2790000     285.999714   -4602.116151   -5455.479484       0.000000       0.000000       0.000000   25046.798770  -31562.803090    1060.524836 
 2800000     295.628709   -4565.478617   -5447.572857       0.000000       0.000000       0.000000   25065.470337  -31567.965759    1054.922565 
 2810000     296.782384   -4663.240979   -5548.777543       0.000000       0.000000       0.000000   24856.614103  -31567.575348    1162.183701 
 2820000     305.510829   -4616.117820   -5527.698239       0.000000       0.000000       0.000000   24989.583428  -31560.806370    1043.524704 
 2830000     292.312626   -4664.355395   -5536.555136       0.000000       0.000000       0.000000   24907.821223  -31565.473048    1121.096689 
 2840000     307.511352   -4576.212644   -5493.762206       0.000000       0.000000       0.000000   25015.091289  -31572.234394    1063.380900 
 2850000     296.283666   -4659.389535   -5543.438030       0.000000       0.000000       0.000000   24922.117535  -31568.953183    1103.397618 
 2860000     303.294011   -4550.931628   -5455.897526       0.000000       0.000000       0.000000   25014.805366  -31566.469495    1095.766604 
 2870000     308.755297   -4531.344416   -5452.605648       0.000000       0.000000       0.000000   25081.566318  -31562.572732    1028.400766 
 2880000     297.624048   -4632.842584   -5520.890498       0.000000       0.000000       0.000000   24975.350120  -31568.749350    1072.508732 
 2890000     289.565299   -4623.797574   -5487.799866       0.000000       0.000000       0.000000   25031.064398  -31566.458837    1047.594573 
 2900000     300.390133   -4585.145528   -5481.446860       0.000000       0.000000       0.000000   25038.107475  -31565.275255    1045.720919 
 2910000     301.746842   -4571.173124   -5471.522592       0.000000       0.000000       0.000000   25073.912670  -31559.420950    1013.985687 
 2920000     298.156540   -4654.666806   -5544.303566       0.000000       0.000000       0.000000   24981.193504  -31568.079146    1042.582075 
 2930000     287.370463   -4617.115531   -5474.568893       0.000000       0.000000       0.000000   25075.983253  -31564.053690    1013.501545 
 2940000     300.760610   -4651.354984   -5548.761745       0.000000       0.000000       0.000000   24884.561744  -31565.659032    1132.335543 
 2950000     298.460555   -4602.502352   -5493.046229       0.000000       0.000000       0.000000   25004.243543  -31564.304545    1067.014774 
 2960000     294.804111   -4662.911249   -5542.545060       0.000000       0.000000       0.000000   24909.265944  -31566.606766    1114.795761 
 2970000     305.991648   -4635.553808   -5548.568891       0.000000       0.000000       0.000000   24834.174797  -31563.695509    1180.951821 
 2980000     304.972487   -4657.633504   -5567.607623       0.000000       0.000000       0.000000   24902.170464  -31569.605552    1099.827466 
 2990000     318.711014   -4514.845214   -5465.812223       0.000000       0.000000       0.000000   25066.134714  -31565.387181    1033.440244 
 3000000     314.561255   -4650.486542   -5589.071540       0.000000       0.000000       0.000000   24776.646559  -31566.237488    1200.519390 
 3010000     299.464587   -4613.292588   -5506.832284       0.000000       0.000000       0.000000   24961.590176  -31564.574733    1096.152272 
 3020000     281.734138   -4717.513933   -5558.149679       0.000000       0.000000       0.000000   24938.355889  -31564.562400    1068.056833 
 3030000     311.119795   -4574.413659   -5502.730059       0.000000       0.000000       0.000000   24905.583965  -31566.908286    1158.594262 
 3040000     305.828442   -4632.419630   -5544.947739       0.000000       0.000000       0.000000   24914.236666  -31565.219705    1106.035299 
 3050000     293.569496   -4635.252349   -5511.202328       0.000000       0.000000       0.000000   24969.262410  -31564.362136    1083.897398 
 3060000     290.582317   -4685.269373   -5552.306234       0.000000       0.000000       0.000000   24869.938616  -31567.895631    1145.650782 
 3070000     294.267241   -4709.439159   -5587.471064       0.000000       0.000000       0.000000   24894.486856  -31568.887829    1086.929910 
 3080000     307.306065   -4629.077448   -5546.014476       0.000000       0.000000       0.000000   24963.374231  -31568.458629    1059.069922 
 3090000     297.856068   -4574.974803   -5463.715015       0.000000       0.000000       0.000000   25047.485400  -31565.179461    1053.979046 
 3100000     300.468832   -4680.706443   -5577.242599       0.000000       0.000000       0.000000   24854.187329  -31563.911712    1132.481784 
 3110000     305.005449   -4583.806392   -5493.878861       0.000000       0.000000       0.000000   25023.551662  -31566.779519    1049.348995 
 3120000     293.275405   -4589.357740   -5464.430211       0.000000       0.000000       0.000000   24990.459229  -31561.525829    1106.636389 
 3130000     292.929732   -4597.191034   -5471.232091       0.000000       0.000000       0.000000   24989.251079  -31561.873385    1101.390214 
 3140000     288.082225   -4612.104712   -5471.681823       0.000000       0.000000       0.000000   25018.783500  -31560.938798    1070.473476 
 3150000     288.501930   -4707.347077   -5568.176499       0.000000       0.000000       0.000000   24932.192715  -31566.395663    1066.026449 
 3160000     297.166395   -4667.722763   -5554.405136       0.000000       0.000000       0.000000   24985.663076  -31565.393737    1025.325525 
 3170000     300.454646   -4556.364561   -5452.858388       0.000000       0.000000       0.000000   25049.502104  -31559.687703    1057.327212 
 3180000     307.276726   -4618.478560   -5535.328047       0.000000       0.000000       0.000000   24907.354675  -31564.385711    1121.702989 
 3190000     302.133975   -4612.755591   -5514.260185       0.000000       0.000000       0.000000   24951.052264  -31563.552424    1098.239975 
 3200000     290.144477   -4623.938093   -5489.668533       0.000000       0.000000       0.000000   24943.870513  -31563.042335    1129.503289 
 3210000     308.180280   -4616.026864   -5535.572368       0.000000       0.000000       0.000000   24956.034888  -31569.048025    1077.440769 
 3220000     285.437202   -4670.002351   -5521.687267       0.000000       0.000000       0.000000   24954.644539  -31567.092031    1090.760226 
 3230000     308.609826   -4576.612140   -5497.439317       0.000000       0.000000       0.000000   24983.066097  -31564.971069    1084.465655 
 3240000     313.840238   -4550.892638   -5487.326271       0.000000       0.000000       0.000000   24995.421540  -31561.404330    1078.656519 
 3250000     294.811086   -4637.503684   -5517.158307       0.000000       0.000000       0.000000   24931.470391  -31564.806859    1116.178161 
 3260000     293.142538   -4616.793183   -5491.469207       0.000000       0.000000       0.000000   25032.777072  -31566.577288    1042.331009 
 3270000     299.177833   -4574.085763   -5466.769846       0.000000       0.000000       0.000000   25010.144396  -31563.224715    1086.310472 
 3280000     295.006845   -4637.526774   -5517.765500       0.000000       0.000000       0.000000   24959.844058  -31563.826841    1086.217283 
 3290000     301.259462   -4652.308665   -5551.203895       0.000000       0.000000       0.000000   24930.810837  -31567.265511    1085.250780 
 3300000     298.215741   -4624.143312   -5513.956715       0.000000       0.000000       0.000000   24965.594521  -31566.433453    1086.882217 
 3310000     274.209391   -4716.060479   -5534.243955       0.000000       0.000000       0.000000   24941.628210  -31567.919749    1092.047583 
 3320000     312.155467   -4622.211052   -5553.617683       0.000000       0.000000       0.000000   24926.575309  -31567.444231    1087.251239 
 3330000     312.103659   -4628.195406   -5559.447452       0.000000       0.000000       0.000000   24905.160576  -31566.405272    1101.797244 
 3340000     294.173325   -4624.992944   -5502.744623       0.000000       0.000000       0.000000   24978.836312  -31565.597672    1084.016738 
 3350000     294.455382   -4683.275538   -5561.868816       0.000000       0.000000       0.000000   24884.844103  -31563.904788    1117.191869 
 3360000     300.007170   -4577.171450   -5472.330102       0.000000       0.000000       0.000000   25011.401443  -31563.517454    1079.785909 
 3370000     297.901922   -4579.188405   -5468.065436       0.000000       0.000000       0.000000   25054.932679  -31566.868863    1043.870748 
 3380000     299.337373   -4667.538125   -5560.698244       0.000000       0.000000       0.000000   24917.078116  -31565.608601    1087.832241 
 3390000     300.933747   -4628.688300   -5526.611664       0.000000       0.000000       0.000000   24931.769855  -31564.432863    1106.051344 
 3400000     297.399361   -4676.762909   -5564.140405       0.000000       0.000000       0.000000   24895.260094  -31563.171040    1103.770541 
 3410000     295.907619   -4587.894499   -5470.820949       0.000000       0.000000       0.000000   24992.539049  -31562.780635    1099.420637 
 3420000     312.328147   -4599.155497   -5531.077367       0.000000       0.000000       0.000000   24920.435515  -31563.774219    1112.261337 
 3430000     292.222286   -4637.813265   -5509.743452       0.000000       0.000000       0.000000   24963.867211  -31564.279855    1090.669192 
 3440000     308.512656   -4664.736642   -5585.273886       0.000000       0.000000       0.000000   24884.686875  -31568.783617    1098.822856 
 3450000     309.144799   -4598.735368   -5521.158795       0.000000       0.000000       0.000000   24967.196129  -31564.141906    1075.786982 
 3460000     291.837318   -4657.681569   -5528.463091       0.000000       0.000000       0.000000   24977.240384  -31566.692109    1060.988634 
 3470000     295.408900   -4623.794649   -5505.233024       0.000000       0.000000       0.000000   25021.116201  -31569.442302    1043.093077 
 3480000     306.731681   -4504.875511   -5420.098698       0.000000       0.000000       0.000000   25095.463805  -31563.299438    1047.736935 
 3490000     287.438026   -4658.435748   -5516.090702       0.000000       0.000000       0.000000   24940.234608  -31567.985409    1111.660100 
 3500000     295.233044   -4527.030281   -5407.943938       0.000000       0.000000       0.000000   25170.739332  -31565.997525     987.314255 
 3510000     301.280121   -4589.867406   -5488.824278       0.000000       0.000000       0.000000   25012.015478  -31567.839427    1066.999672 
 3520000     312.496776   -4601.146231   -5533.571256       0.000000       0.000000       0.000000   24949.754852  -31560.000150    1076.674042 
 3530000     310.864078   -4640.109979   -5567.663375       0.000000       0.000000       0.000000   24829.549811  -31566.298339    1169.085153 
 3540000     292.541325   -4606.144722   -5479.026855       0.000000       0.000000       0.000000   25112.177168  -31563.808532     972.604510 
 3550000     290.405197   -4701.749613   -5568.257987       0.000000       0.000000       0.000000   24895.056951  -31559.944262    1096.629324 
 3560000     297.768552   -4614.636562   -5503.115647       0.000000       0.000000       0.000000   24973.793604  -31571.028535    1094.119283 
 3570000     309.557241   -4628.012350   -5551.666415       0.000000       0.000000       0.000000   24864.647451  -31565.662014    1149.348148 
 3580000     318.946025   -4602.658081   -5554.326314       0.000000       0.000000       0.000000   24937.037911  -31565.154129    1073.789904 
 3590000     290.009587   -4636.619316   -5501.947271       0.000000       0.000000       0.000000   24975.391292  -31567.979020    1090.640456 
 3600000     300.280088   -4692.449018   -5588.421999       0.000000       0.000000       0.000000   24783.069182  -31565.780819    1194.289638 
 3610000     302.351469   -4601.204226   -5503.357775       0.000000       0.000000       0.000000   25028.857966  -31568.092931    1035.877190 
 3620000     293.568327   -4599.618207   -5475.564699       0.000000       0.000000       0.000000   24972.783435  -31563.177857    1114.829723 
 3630000     302.738217   -4543.242419   -5446.549944       0.000000       0.000000       0.000000   25039.017669  -31564.715228    1079.147615 
 3640000     289.798368   -4672.027626   -5536.725349       0.000000       0.000000       0.000000   24908.014199  -31569.500503    1124.760955 
 3650000     299.150940   -4707.128232   -5599.732074       0.000000       0.000000       0.000000   24836.847795  -31568.650842    1132.070973 
 3660000     303.072619   -4605.110371   -5509.415683       0.000000       0.000000       0.000000   24935.143177  -31565.674572    1121.115712 
 3670000     314.724099   -4594.474220   -5533.545110       0.000000       0.000000       0.000000   24957.447906  -31565.345782    1074.352765 
 3680000     295.360636   -4664.606259   -5545.900625       0.000000       0.000000       0.000000   24876.444943  -31564.963000    1142.617432 
 3690000     305.756849   -4618.217304   -5530.531795       0.000000       0.000000       0.000000   24862.711106  -31568.943756    1175.700855 
 3700000     298.859679   -4617.261942   -5508.996720       0.000000       0.000000       0.000000   24957.868252  -31562.201399    1095.336428 
 3710000     301.039850   -4621.617943   -5519.857896       0.000000       0.000000       0.000000   24981.480255  -31567.771626    1066.433475 
 3720000     296.873494   -4539.626244   -5425.434662       0.000000       0.000000       0.000000   25077.827723  -31560.474048    1057.211663 
 3730000     313.114806   -4516.134986   -5450.404083       0.000000       0.000000       0.000000   25025.387123  -31563.515629    1087.724423 
 3740000     290.968074   -4623.276644   -5491.464525       0.000000       0.000000       0.000000   25050.410731  -31563.069753    1021.194497 
 3750000     302.209667   -4578.203361   -5479.933804       0.000000       0.000000       0.000000   25024.270168  -31566.365559    1062.161587 
 3760000     295.530483   -4593.564508   -5475.365661       0.000000       0.000000       0.000000   24999.718109  -31565.719005    1090.635235 
 3770000     301.712271   -4617.484936   -5517.731253       0.000000       0.000000       0.000000   24890.539878  -31564.816987    1156.545855 
 3780000     311.521506   -4592.189803   -5521.704825       0.000000       0.000000       0.000000   25006.818283  -31567.873235    1039.350127 
 3790000     293.013832   -4671.336201   -5545.628195       0.000000       0.000000       0.000000   24937.474919  -31565.337001    1082.233887 
 3800000     315.051010   -4578.179575   -5518.225899       0.000000       0.000000       0.000000   24943.506004  -31564.665723    1102.933821 
 3810000     281.684516   -4744.058935   -5584.546620       0.000000       0.000000       0.000000   24863.612413  -31564.134033    1115.975000 
 3820000     304.625493   -4603.285222   -5512.223985       0.000000       0.000000       0.000000   24992.953983  -31567.764152    1062.586185 
 3830000     298.558140   -4590.087120   -5480.922170       0.000000       0.000000       0.000000   24970.538518  -31566.874713    1115.414025 
 3840000     312.714641   -4623.203868   -5556.278957       0.000000       0.000000       0.000000   24884.963798  -31561.397878    1120.155123 
 3850000     296.771637   -4647.703638   -5533.208135       0.000000       0.000000       0.000000   24889.864151  -31566.341551    1143.269266 
 3860000     310.133542   -4633.044942   -5558.418570       0.000000       0.000000       0.000000   24981.509185  -31566.854789    1026.927034 
 3870000     299.326039   -4690.306993   -5583.433293       0.000000       0.000000       0.000000   24870.775248  -31566.733554    1112.525013 
 3880000     311.548360   -4604.851569   -5534.446718       0.000000       0.000000       0.000000   24892.155101  -31564.678861    1138.077042 
 3890000     292.800423   -4670.318969   -5543.974196       0.000000       0.000000       0.000000   24949.428147  -31569.589634    1076.187291 
 3900000     302.168307   -4620.836084   -5522.443116       0.000000       0.000000       0.000000   24991.499635  -31563.112733    1049.169982 
 3910000     288.599845   -4644.965408   -5506.086989       0.000000       0.000000       0.000000   24999.681734  -31565.086347    1059.317624 
 3920000     301.719371   -4633.983645   -5534.251148       0.000000       0.000000       0.000000   24883.653387  -31564.996892    1147.092357 
 3930000     310.441924   -4611.959366   -5538.253143       0.000000       0.000000       0.000000   24886.553044  -31566.388368    1141.582181 
 3940000     308.053538   -4583.306563   -5502.473896       0.000000       0.000000       0.000000   25000.739431  -31569.001710    1065.788383 
 3950000     291.445799   -4691.670244   -5561.283556       0.000000       0.000000       0.000000   24918.583082  -31568.488285    1088.621647 
 3960000     287.532525   -4597.989581   -5455.926502       0.000000       0.000000       0.000000   25021.324605  -31567.532550    1090.281443 
 3970000     299.456431   -4593.300723   -5486.816085       0.000000       0.000000       0.000000   24920.822384  -31563.744659    1156.106189 
 3980000     308.590638   -4627.470540   -5548.240466       0.000000       0.000000       0.000000   24917.330369  -31566.716590    1101.145754 
 3990000     287.715762   -4614.050682   -5472.534344       0.000000       0.000000       0.000000   25047.483118  -31565.119119    1045.101657 
 4000000     302.557484   -4598.413187   -5501.181443       0.000000       0.000000       0.000000   24933.409798  -31560.660961    1126.069721 
 4010000     319.270089   -4566.905983   -5519.541157       0.000000       0.000000       0.000000   24981.681133  -31567.026242    1065.803952 
 4020000     309.126038   -4604.241245   -5526.608690       0.000000       0.000000       0.000000   24936.862248  -31563.323849    1099.852911 
 4030000     307.600997   -4520.362486   -5438.179531       0.000000       0.000000       0.000000   25078.494118  -31567.914713    1051.241064 
 4040000     302.586534   -4572.644516   -5475.499449       0.000000       0.000000       0.000000   25059.231727  -31562.563756    1027.832580 
 4050000     302.816567   -4641.057748   -5544.599053       0.000000       0.000000       0.000000   24952.004202  -31567.407847    1070.804592 
 4060000     300.031553   -4658.190384   -5553.421788       0.000000       0.000000       0.000000   24860.590011  -31568.885205    1154.873406 
 4070000     313.517064   -4582.241212   -5517.710561       0.000000       0.000000       0.000000   24838.829963  -31561.899284    1205.358760 
 4080000     298.997085   -4582.177119   -5474.321890       0.000000       0.000000       0.000000   24994.731974  -31565.123989    1096.070125 
 4090000     321.955941   -4581.735944   -5542.385137       0.000000       0.000000       0.000000   24967.850582  -31566.756549    1056.520830 
 4100000     301.185548   -4666.260391   -5564.935076       0.000000       0.000000       0.000000   24857.242430  -31565.476824    1143.299318 
 4110000     319.613409   -4639.291110   -5592.950679       0.000000       0.000000       0.000000   24802.030028  -31566.118120    1171.137413 
 4120000     301.173381   -4605.223103   -5503.861484       0.000000       0.000000       0.000000   24934.816398  -31565.907769    1127.229887 
 4130000     299.055368   -4580.920111   -5473.238785       0.000000       0.000000       0.000000   24974.617006  -31563.896867    1116.041077 
 4140000     296.331078   -4631.811165   -5516.001127       0.000000       0.000000       0.000000   24955.757417  -31568.379177    1096.620633 
 4150000     290.069044   -4661.306163   -5526.811525       0.000000       0.000000       0.000000   24951.760470  -31566.527389    1087.955395 
 4160000     293.474755   -4647.594058   -5523.261351       0.000000       0.000000       0.000000   24986.740902  -31564.398149    1054.395896 
 4170000     308.650944   -4606.047459   -5526.997324       0.000000       0.000000       0.000000   24970.515531  -31567.779479    1070.266625 
 4180000     312.032056   -4659.195483   -5590.233881       0.000000       0.000000       0.000000   24841.836875  -31567.854590    1135.783834 
 4190000     291.292692   -4657.212669   -5526.369142       0.000000       0.000000       0.000000   24914.063602  -31559.561608    1119.128864 
 4200000     297.727355   -4610.307304   -5498.663464       0.000000       0.000000       0.000000   25061.459241  -31567.445482    1007.322776 
 4210000     286.123333   -4722.766103   -5576.498290       0.000000       0.000000       0.000000   24900.269192  -31564.504340    1087.736858 
 4220000     304.996490   -4580.322548   -5490.368288       0.000000       0.000000       0.000000   25017.287061  -31566.552607    1058.897257 
 4230000     305.934591   -4603.738047   -5516.582884       0.000000       0.000000       0.000000   24971.337976  -31564.452389    1076.531529 
 4240000     306.599360   -4623.681051   -5538.509420       0.000000       0.000000       0.000000   24943.494932  -31565.918097    1083.913746 
 4250000     308.188452   -4585.128587   -5504.698472       0.000000       0.000000       0.000000   24961.662736  -31562.795731    1096.434523 
 4260000     287.694787   -4691.368680   -5549.789757       0.000000       0.000000       0.000000   24920.728269  -31564.577028    1094.059002 
 4270000     292.178338   -4686.189286   -5557.988340       0.000000       0.000000       0.000000   24863.666049  -31567.493662    1145.839273 
 4280000     307.927551   -4586.932679   -5505.724091       0.000000       0.000000       0.000000   24924.222434  -31565.379697    1135.433172 
 4290000     293.373468   -4697.618691   -5572.983763       0.000000       0.000000       0.000000   24932.064308  -31571.451111    1066.403041 
 4300000     297.644676   -4623.295511   -5511.404975       0.000000       0.000000       0.000000   24982.447382  -31567.057092    1073.204734 
 4310000     297.471335   -4608.948906   -5496.541156       0.000000       0.000000       0.000000   24943.217142  -31565.319534    1125.561236 
 4320000     290.627830   -4638.716092   -5505.888754       0.000000       0.000000       0.000000   24963.825111  -31568.491377    1098.777512 
 4330000     318.583655   -4503.563304   -5454.150302       0.000000       0.000000       0.000000   25045.306812  -31565.778322    1066.321208 
 4340000     291.116822   -4665.690807   -5534.322520       0.000000       0.000000       0.000000   24962.635156  -31569.017158    1072.059483 
 4350000     318.075382   -4542.046404   -5491.116822       0.000000       0.000000       0.000000   25030.139956  -31567.524598    1046.267820 
 4360000     295.479751   -4663.643519   -5545.293300       0.000000       0.000000       0.000000   24854.896924  -31567.147263    1166.957039 
 4370000     307.626270   -4625.222656   -5543.115111       0.000000       0.000000       0.000000   24928.884044  -31561.782674    1089.783519 
 4380000     301.928992   -4647.127767   -5548.020733       0.000000       0.000000       0.000000   24964.928481  -31568.600146    1055.650931 
 4390000     302.784143   -4637.899591   -5541.344150       0.000000       0.000000       0.000000   24910.383163  -31568.687536    1116.960224 
 4400000     301.837628   -4598.605185   -5499.225541       0.000000       0.000000       0.000000   24974.002158  -31562.599801    1089.372101 
 4410000     300.032503   -4673.231419   -5568.465660       0.000000       0.000000       0.000000   24932.884922  -31566.850568    1065.499986 
 4420000     288.633265   -4660.369134   -5521.590433       0.000000       0.000000       0.000000   24935.758257  -31567.902261    1110.553571 
 4430000     306.694588   -4586.557132   -5501.669639       0.000000       0.000000       0.000000   24967.373573  -31567.196683    1098.153470 
 4440000     297.907632   -4678.474587   -5567.368656       0.000000       0.000000       0.000000   24961.034263  -31570.063084    1041.660165 
 4450000     295.299324   -4635.144208   -5516.255633       0.000000       0.000000       0.000000   24935.908527  -31566.852587    1114.688427 
 4460000     295.469523   -4660.738885   -5542.358146       0.000000       0.000000       0.000000   24897.247703  -31563.306893    1123.701044 
 4470000     285.102812   -4717.426701   -5568.113865       0.000000       0.000000       0.000000   24946.479414  -31564.280991    1049.687712 
 4480000     286.064896   -4634.307136   -5487.864957       0.000000       0.000000       0.000000   25059.105136  -31567.208487    1020.238394 
 4490000     287.884121   -4598.561801   -5457.547812       0.000000       0.000000       0.000000   25005.082165  -31565.486025    1102.856048 
 4500000     301.413122   -4588.166214   -5487.519933       0.000000       0.000000       0.000000   24972.252264  -31567.231189    1107.458991 
 4510000     306.080120   -4601.875152   -5515.154215       0.000000       0.000000       0.000000   24930.159726  -31565.381662    1120.067721 
 4520000     293.920112   -4596.943322   -5473.939467       0.000000       0.000000       0.000000   25022.072399  -31566.487355    1070.475490 
 4530000     309.926890   -4580.423394   -5505.180416       0.000000       0.000000       0.000000   25041.559612  -31560.763944    1014.023916 
 4540000     298.920865   -4668.232657   -5560.150003       0.000000       0.000000       0.000000   24896.020522  -31566.987001    1110.816476 
 4550000     311.548764   -4617.132187   -5546.728541       0.000000       0.000000       0.000000   24990.998886  -31566.376955    1028.649528 
 4560000     302.191477   -4682.963215   -5584.639384       0.000000       0.000000       0.000000   24866.232199  -31566.186448    1115.314865 
 4570000     299.015724   -4654.902915   -5547.103299       0.000000       0.000000       0.000000   24901.303907  -31566.404599    1117.997393 
 4580000     294.451121   -4727.206663   -5605.787228       0.000000       0.000000       0.000000   24878.622834  -31567.062296    1082.652235 
 4590000     316.637652   -4545.071856   -5489.852386       0.000000       0.000000       0.000000   24979.968778  -31568.218145    1098.396981 
 4600000     295.496279   -4690.306736   -5572.005833       0.000000       0.000000       0.000000   24859.203394  -31570.629927    1139.420700 
 4610000     297.405059   -4646.342664   -5533.737162       0.000000       0.000000       0.000000   24966.294514  -31569.348816    1069.317140 
 4620000     297.667923   -4601.948666   -5490.127493       0.000000       0.000000       0.000000   24990.794459  -31569.149805    1088.227852 
 4630000     308.853275   -4615.431143   -5536.984722       0.000000       0.000000       0.000000   24935.142111  -31563.522306    1091.395472 
 4640000     309.692032   -4571.192494   -5495.248748       0.000000       0.000000       0.000000   24929.120105  -31565.485162    1141.116309 
 4650000     306.403000   -4629.964821   -5544.207293       0.000000       0.000000       0.000000   24906.658987  -31567.423844    1116.557563 
 4660000     299.472867   -4661.725952   -5555.290355       0.000000       0.000000       0.000000   24906.996254  -31565.788423    1103.501814 
 4670000     299.732559   -4621.403227   -5515.742497       0.000000       0.000000       0.000000   24899.486867  -31564.632170    1149.402806 
 4680000     300.824044   -4594.074686   -5491.670719       0.000000       0.000000       0.000000   25008.925929  -31562.787696    1062.191048 
 4690000     304.737370   -4551.432456   -5460.705036       0.000000       0.000000       0.000000   25077.564779  -31568.672025    1030.402210 
 4700000     289.130385   -4622.405975   -5485.110575       0.000000       0.000000       0.000000   24985.146400  -31569.681690    1099.424716 
 4710000     308.946863   -4584.308004   -5506.140830       0.000000       0.000000       0.000000   25011.019271  -31564.364595    1047.204493 
 4720000     289.179002   -4709.282238   -5572.131902       0.000000       0.000000       0.000000   24887.395490  -31568.204793    1108.677400 
 4730000     299.122010   -4625.271830   -5517.789349       0.000000       0.000000       0.000000   24927.131391  -31565.699657    1120.778917 
 4740000     292.744950   -4594.299847   -5467.789553       0.000000       0.000000       0.000000   24978.568618  -31560.435442    1114.077271 
 4750000     302.772764   -4657.087144   -5560.497751       0.000000       0.000000       0.000000   24920.192488  -31566.676570    1085.986331 
 4760000     303.796222   -4648.271595   -5554.735987       0.000000       0.000000       0.000000   24940.170585  -31567.520062    1072.613490 
 4770000     294.434271   -4681.812042   -5560.342329       0.000000       0.000000       0.000000   24870.535036  -31563.037769    1132.160404 
 4780000     295.358385   -4707.515279   -5588.802928       0.000000       0.000000       0.000000   24874.863132  -31562.876321    1099.210261 
 4790000     307.599835   -4640.014561   -5557.828138       0.000000       0.000000       0.000000   24925.530129  -31565.466064    1082.107797 
 4800000     281.711149   -4694.466509   -5535.033662       0.000000       0.000000       0.000000   24868.350069  -31569.691963    1166.308232 
 4810000     290.882041   -4663.524731   -5531.455907       0.000000       0.000000       0.000000   24892.174554  -31567.182600    1143.552140 
 4820000     310.440796   -4621.194262   -5547.484671       0.000000       0.000000       0.000000   24994.100255  -31566.875336    1025.290410 
 4830000     292.538593   -4662.296910   -5535.170889       0.000000       0.000000       0.000000   24965.353555  -31567.151142    1066.626697 
 4840000     296.281129   -4617.628400   -5501.669324       0.000000       0.000000       0.000000   24998.577550  -31568.229775    1067.982902 
 4850000     301.136733   -4535.889597   -5434.418628       0.000000       0.000000       0.000000   24998.629306  -31562.489947    1129.442013 
 4860000     314.567126   -4593.277860   -5531.880376       0.000000       0.000000       0.000000   24995.507435  -31563.943532    1036.555721 
 4870000     300.281914   -4594.570424   -5490.548853       0.000000       0.000000       0.000000   25055.006205  -31563.435353    1017.880294 
 4880000     300.241831   -4606.497649   -5502.356481       0.000000       0.000000       0.000000   25002.376631  -31567.008875    1062.275762 
 4890000     296.638324   -4615.690894   -5500.797615       0.000000       0.000000       0.000000   25027.852321  -31565.312816    1036.662880 
 4900000     307.708482   -4545.116061   -5463.253819       0.000000       0.000000       0.000000   25038.990642  -31566.004207    1063.759746 
 4910000     309.969805   -4620.044098   -5544.929169       0.000000       0.000000       0.000000   24882.514516  -31564.697633    1137.253948 
 4920000     300.481808   -4646.919069   -5543.493940       0.000000       0.000000       0.000000   24946.850269  -31566.609929    1076.265720 
 4930000     301.684643   -4651.813380   -5551.977259       0.000000       0.000000       0.000000   24936.810965  -31561.458928    1072.670704 
 4940000     305.116027   -4534.368278   -5444.770690       0.000000       0.000000       0.000000   25044.763512  -31561.967264    1072.433063 
 4950000     299.146609   -4609.813812   -5502.404729       0.000000       0.000000       0.000000   24987.385987  -31564.504176    1074.713459 
 4960000     304.287047   -4579.174639   -5487.103548       0.000000       0.000000       0.000000   25029.842681  -31563.801816    1046.855586 
 4970000     293.033533   -4623.971943   -5498.322722       0.000000       0.000000       0.000000   25004.742194  -31565.846339    1062.781423 
 4980000     296.989266   -4643.155177   -5529.309034       0.000000       0.000000       0.000000   24848.456410  -31570.271146    1192.505702 
 4990000     296.425285   -4613.474250   -5497.945308       0.000000       0.000000       0.000000   24990.118184  -31566.954401    1078.890909 
 5000000     293.777066   -4599.369049   -5475.938375       0.000000       0.000000       0.000000   24958.332279  -31568.151079    1133.880426 
Loop time of 9780.68 on 8 procs for 5000000 steps with 1503 atoms

Performance: 44.169 ns/day, 0.543 hours/ns, 511.212 timesteps/s
99.2% CPU use with 8 MPI tasks x 1 OpenMP threads

MPI task timing breakdown:
Section |  min time  |  avg time  |  max time  |%varavg| %total
---------------------------------------------------------------
Pair    | 4846.9     | 4864.3     | 4879.6     |  14.8 | 49.73
Bond    | 1.3153     | 1.4323     | 1.5762     |   7.0 |  0.01
Kspace  | 2623.7     | 2637.8     | 2653.3     |  19.5 | 26.97
Neigh   | 351.48     | 351.65     | 351.82     |   0.6 |  3.60
Comm    | 448.77     | 470.07     | 491.07     |  59.4 |  4.81
Output  | 2.0267     | 2.4134     | 2.6445     |  11.6 |  0.02
Modify  | 1336.8     | 1397.6     | 1446.6     |  83.1 | 14.29
Other   |            | 55.43      |            |       |  0.57

Nlocal:    187.875 ave 194 max 179 min
Histogram: 1 0 1 0 2 0 0 1 1 2
Nghost:    4565.88 ave 4603 max 4532 min
Histogram: 2 0 0 0 0 4 1 0 0 1
Neighs:    66980.1 ave 70746 max 62894 min
Histogram: 2 0 0 1 0 2 0 1 1 1

Total # of neighbors = 535841
Ave neighs/atom = 356.514
Ave special neighs/atom = 2
Neighbor list builds = 217210
Dangerous builds = 0
Total wall time: 3:15:51
