LAMMPS (3 Mar 2020)
  using 1 OpenMP thread(s) per MPI task
#CXE2
variable    lambda1  index   0.00922
variable    lambda2  index   0.04794
variable    lambda3  index   0.11505
variable    lambda4  index   0.20634
variable    lambda5  index   0.31608
variable    lambda6  index   0.43738
variable    lambda7  index   0.56262
variable    lambda8  index   0.68392
variable    lambda9  index   0.79366
variable    lambda10  index   0.88495
variable    lambda11  index   0.95206
variable    lambda12  index   0.99078

variable    lambda00  equal   ${lambda6}
variable    lambda00  equal   0.43738
variable    q10 equal -0.8476*v_lambda00
variable    q20 equal  0.4238*v_lambda00
variable    lambda01  equal   (v_lambda00-0.002)
variable    q11 equal -0.8476*v_lambda01
variable    q21 equal  0.4238*v_lambda01
variable    lambda02  equal   (v_lambda00+0.002)
variable    q12 equal -0.8476*v_lambda02
variable    q22 equal  0.4238*v_lambda02

atom_style	full
units		real
dimension	3
boundary	p p p
bond_style     	harmonic
angle_style    	harmonic

pair_style      hybrid     lj/cut/coul/long 10.0     lj/cut/coul/long/soft 1 0.5 10.0 10.0
pair_modify     shift yes mix geometric

kspace_style   	pppm 1e-5

read_data   lmp.data
  orthogonal box = (0 0 0) to (24 24 24)
  2 by 2 by 2 MPI processor grid
  reading atoms ...
  1503 atoms
  scanning bonds ...
  2 = max bonds/atom
  scanning angles ...
  1 = max angles/atom
  reading bonds ...
  1002 bonds
  reading angles ...
  501 angles
  2 = max # of 1-2 neighbors
  1 = max # of 1-3 neighbors
  1 = max # of 1-4 neighbors
  2 = max # of special neighbors
  special bonds CPU = 0.00140827 secs
  read_data CPU = 0.00719792 secs
include     lmp.setting
# ~~~~~BONDS~~~~~
# bond_coeff type k(kcal/mol/ang**2)  r0 (ang)
bond_coeff  1  600.000  1.000
bond_coeff  2  600.000  1.000

# ~~~~~ANGLES~~~~~
# angle_coeff type k(kcal/mol/rad**2)  theta_0 (degrees)
angle_coeff  1   75.000 109.470
angle_coeff  2   75.000 109.470

set         type 3 charge ${q10}
set         type 3 charge -0.370723288
  1 settings made for charge
set         type 4 charge ${q20}
set         type 4 charge 0.185361644
  2 settings made for charge

pair_coeff  1   1   lj/cut/coul/long   0.1553500  3.16600
pair_coeff  2   2   lj/cut/coul/long   0.0000000  1.00000
pair_coeff  3   3   lj/cut/coul/long   0.1553500  3.16600
pair_coeff  4   4   lj/cut/coul/long   0.0000000  1.00000

pair_coeff  1   3   lj/cut/coul/long/soft  0.1553500  3.16600  ${lambda00}
pair_coeff  1   3   lj/cut/coul/long/soft  0.1553500  3.16600  0.43738
pair_coeff  2   3   lj/cut/coul/long/soft  0.0000000  1.00000  ${lambda00}
pair_coeff  2   3   lj/cut/coul/long/soft  0.0000000  1.00000  0.43738

pair_coeff  1   4   lj/cut/coul/long/soft  0.0000000  1.00000  ${lambda00}
pair_coeff  1   4   lj/cut/coul/long/soft  0.0000000  1.00000  0.43738
pair_coeff  2   4   lj/cut/coul/long/soft  0.0000000  1.00000  ${lambda00}
pair_coeff  2   4   lj/cut/coul/long/soft  0.0000000  1.00000  0.43738

fix 		fShakeSPCE all shake 0.0001 20 0 b 1 2 a 1 2
  0 = # of size 2 clusters
  0 = # of size 3 clusters
  0 = # of size 4 clusters
  501 = # of frozen angles
  find clusters CPU = 0.0105715 secs

timestep    1.0
run_style   verlet

fix         fxnpt all npt temp 300.0 300.0 100.0 iso 1.0 1.0 1000

thermo_style    custom step etotal pe ecoul elong evdwl
thermo_modify   format float %20.12f
thermo		1

rerun ${lambda00}.lammpstrj dump x y z box yes
rerun 0.43738.lammpstrj dump x y z box yes
PPPM initialization ...
  using 12-bit tables for long-range coulomb (src/kspace.cpp:332)
  G vector (1/distance) = 0.315108
  grid = 24 24 24
  stencil order = 5
  estimated absolute RMS force accuracy = 0.00171108
  estimated relative force accuracy = 5.15285e-06
  using double precision MKL FFT
  3d grid and FFT values/proc = 6859 1728
Neighbor list info ...
  update every 1 steps, delay 10 steps, check yes
  max neighbors/atom: 2000, page size: 100000
  master list distance cutoff = 12
  ghost atom cutoff = 12
  binsize = 6, bins = 4 4 4
  3 neighbor lists, perpetual/occasional/extra = 3 0 0
  (1) pair lj/cut/coul/long, perpetual, skip from (3)
      attributes: half, newton on
      pair build: skip
      stencil: none
      bin: none
  (2) pair lj/cut/coul/long/soft, perpetual, skip from (3)
      attributes: half, newton on
      pair build: skip
      stencil: none
      bin: none
  (3) neighbor class addition, perpetual
      attributes: half, newton on
      pair build: half/bin/newton
      stencil: half/bin/3d/newton
      bin: standard
Per MPI rank memory allocation (min/avg/max) = 9.729 | 9.732 | 9.735 Mbytes
Step TotEng PotEng E_coul E_long E_vdwl 
       0   -5527.435072607979   -5527.435072607979   25156.135716200784  -31792.814881455943    1109.244092647177 
    1000   -5514.887597953133   -5514.887597953133   25204.630437049458  -31792.356115442741    1072.838080440152 
    2000   -5477.127767436323   -5477.127767436323   25269.612364842877  -31793.235452934412    1046.495320655214 
    3000   -5547.204464025617   -5547.204464025617   25140.537905463931  -31789.715226248420    1101.972856758872 
    4000   -5511.076176957969   -5511.076176957969   25227.658032205032  -31795.096988484303    1056.362779321301 
    5000   -5464.743927517447   -5464.743927517447   25294.036529201250  -31793.054199784325    1034.273743065622 
    6000   -5543.514134313395   -5543.514134313395   25194.587955826042  -31794.088719241809    1055.986629102374 
    7000   -5562.805288679174   -5562.805288679174   25154.344114666943  -31792.004192128581    1074.854788782467 
    8000   -5429.600674844696   -5429.600674844696   25321.129046022364  -31791.253187542534    1040.523466675476 
    9000   -5511.380148331991   -5511.380148331991   25190.383909734697  -31788.180087289722    1086.416029223033 
   10000   -5537.741631028181   -5537.741631028181   25196.690502868878  -31793.449385172458    1059.017251275401 
   11000   -5475.356551888039   -5475.356551888039   25321.044612181300  -31792.266627910587     995.865463841245 
   12000   -5461.159824968847   -5461.159824968847   25352.991859455342  -31792.583465380965     978.431780956775 
   13000   -5520.425856452413   -5520.425856452413   25130.951690175010  -31791.420454962910    1140.042908335490 
   14000   -5485.408542077323   -5485.408542077323   25177.352498990822  -31793.412681208683    1130.651640140541 
   15000   -5528.118921956895   -5528.118921956895   25123.316339927020  -31791.808055406040    1140.372793522124 
   16000   -5554.459241987934   -5554.459241987934   25120.972045215996  -31788.043322966900    1112.612035762972 
   17000   -5504.430350100414   -5504.430350100414   25253.709205449748  -31793.747225876108    1035.607670325938 
   18000   -5563.231353118405   -5563.231353118405   25132.448045093988  -31795.653833023389    1099.974434810995 
   19000   -5481.625110011915   -5481.625110011915   25217.531171307674  -31790.359647503574    1091.203366183985 
   20000   -5542.404390585139   -5542.404390585139   25094.289541313829  -31790.504585682396    1153.810653783428 
   21000   -5491.414410575420   -5491.414410575420   25221.174761318660  -31786.372756538218    1073.783584644134 
   22000   -5539.940453407839   -5539.940453407839   25157.663339747705  -31787.618953145469    1090.015159989926 
   23000   -5514.632583361097   -5514.632583361097   25225.173166118009  -31793.572809747377    1053.767060268272 
   24000   -5527.555195515735   -5527.555195515735   25157.042203997786  -31788.567286509624    1103.969886996105 
   25000   -5591.928165177618   -5591.928165177618   25107.771999775745  -31790.795812752178    1091.095647798815 
   26000   -5557.398601460769   -5557.398601460769   25074.479810565157  -31789.970541687559    1158.092129661633 
   27000   -5611.161315973270   -5611.161315973270   25088.980448263985  -31793.140381135618    1092.998616898361 
   28000   -5525.430522165654   -5525.430522165654   25093.898438651173  -31792.546749298366    1173.217788481535 
   29000   -5581.101002062456   -5581.101002062456   25060.101267234160  -31789.730674495757    1148.528405199148 
   30000   -5572.115153901206   -5572.115153901206   25083.824614913123  -31791.785029714752    1135.845260900428 
   31000   -5540.203109997019   -5540.203109997019   25115.402314412633  -31794.653793313835    1139.048368904183 
   32000   -5550.649862418264   -5550.649862418264   25131.649503113771  -31794.665718839857    1112.366353307822 
   33000   -5511.282335726533   -5511.282335726533   25214.990338495983  -31791.475795293925    1065.203121071409 
   34000   -5574.962405445447   -5574.962405445447   25105.392780591996  -31790.369588096375    1110.014402058929 
   35000   -5551.424293413453   -5551.424293413453   25119.156620808564  -31797.051189274964    1126.470275052946 
   36000   -5503.756940220319   -5503.756940220319   25172.403426680485  -31792.302679261280    1116.142312360478 
   37000   -5487.936006165601   -5487.936006165601   25252.248364304345  -31792.238119993355    1052.053749523412 
   38000   -5535.234652653195   -5535.234652653195   25096.537048534952  -31795.572481417290    1163.800780229142 
   39000   -5501.264108053470   -5501.264108053470   25198.497342928047  -31790.536930336784    1090.775479355263 
   40000   -5558.819078090957   -5558.819078090957   25114.864458351563  -31790.163418234508    1116.479881791988 
   41000   -5543.239530769071   -5543.239530769071   25184.859500147890  -31790.931959531776    1062.832928614815 
   42000   -5523.756026415675   -5523.756026415675   25072.964962284557  -31789.928064731856    1193.207076031626 
   43000   -5579.719437680935   -5579.719437680935   25149.511288683447  -31792.316842667922    1063.086116303538 
   44000   -5604.276190804863   -5604.276190804863   25070.780721166040  -31791.750058937716    1116.693146966816 
   45000   -5534.039297361582   -5534.039297361582   25131.440871858122  -31790.024829023907    1124.544659804200 
   46000   -5513.990847499677   -5513.990847499677   25190.379668458736  -31788.443383587379    1084.072867628966 
   47000   -5435.714921764120   -5435.714921764120   25244.112740107874  -31789.779691858315    1109.952029986320 
   48000   -5509.464399921504   -5509.464399921504   25193.348538933955  -31786.275429176458    1083.462490320992 
   49000   -5559.799513639417   -5559.799513639417   25103.412384358624  -31793.525921346969    1130.314023348933 
   50000   -5536.139481345526   -5536.139481345526   25164.996416356345  -31790.092522725456    1088.956625023580 
   51000   -5483.560281023263   -5483.560281023263   25268.196261232733  -31793.088407064668    1041.331864808670 
   52000   -5553.026305236574   -5553.026305236574   25139.946381633563  -31791.051355675259    1098.078668805119 
   53000   -5537.155196166241   -5537.155196166241   25120.012891009690  -31790.318643671129    1133.150556495198 
   54000   -5527.768758214781   -5527.768758214781   25200.584404507092  -31789.004876934359    1060.651714212485 
   55000   -5479.468639331440   -5479.468639331440   25250.451357673519  -31793.411930963681    1063.491933958721 
   56000   -5552.876327061647   -5552.876327061647   25126.848890560497  -31793.971151666967    1114.245934044819 
   57000   -5495.033424519643   -5495.033424519643   25157.410413457455  -31793.266115133025    1140.822277155922 
   58000   -5519.235112928345   -5519.235112928345   25179.522948958307  -31793.492570317150    1094.734508430497 
   59000   -5517.446803904037   -5517.446803904037   25202.171759858396  -31792.525223440265    1072.906659677830 
   60000   -5496.163558447894   -5496.163558447894   25199.079065585654  -31789.185899090764    1093.943275057217 
   61000   -5612.219465223025   -5612.219465223025   25048.561413787291  -31793.573553754890    1132.792674744576 
   62000   -5493.693536605133   -5493.693536605133   25181.045344546277  -31794.692924501145    1119.954043349731 
   63000   -5475.196075590560   -5475.196075590560   25220.191829738644  -31792.095797222100    1096.707891892896 
   64000   -5402.482118858374   -5402.482118858374   25332.197017102735  -31790.001010104053    1055.321874142942 
   65000   -5512.192787447144   -5512.192787447144   25199.849729368987  -31791.663245020354    1079.620728204222 
   66000   -5582.774654667588   -5582.774654667588   24989.497414093545  -31787.733472872980    1215.461404111846 
   67000   -5490.387147442805   -5490.387147442805   25148.218850523270  -31787.736171871391    1149.130173905314 
   68000   -5524.230418074814   -5524.230418074814   25120.046405921261  -31791.033397913809    1146.756573917732 
   69000   -5478.234928389957   -5478.234928389957   25201.936429415604  -31792.146828780158    1111.975470974597 
   70000   -5535.524060819469   -5535.524060819469   25185.720094263801  -31793.292996880537    1072.048841797265 
   71000   -5592.599604535117   -5592.599604535117   25057.817268111605  -31791.024290166326    1140.607417519603 
   72000   -5543.862273371171   -5543.862273371171   25113.772259109355  -31792.791065653175    1135.156533172650 
   73000   -5608.741005720709   -5608.741005720709   25039.437230902447  -31794.590912750784    1146.412676127623 
   74000   -5519.709060516579   -5519.709060516579   25142.063354007976  -31791.634529442745    1129.862114918186 
   75000   -5540.720639148498   -5540.720639148498   25119.235045196558  -31792.130056063736    1132.174371718684 
   76000   -5506.642137620976   -5506.642137620976   25242.620289953717  -31792.601067982105    1043.338640407414 
   77000   -5486.384327102562   -5486.384327102562   25245.498340744467  -31794.028177746812    1062.145509899791 
   78000   -5499.710601062132   -5499.710601062132   25204.481416689905  -31788.713764997188    1084.521747245150 
   79000   -5545.436275984077   -5545.436275984077   25145.823726165789  -31794.611544601325    1103.351542451456 
   80000   -5487.734895372156   -5487.734895372156   25267.933820255686  -31791.413835338975    1035.745119711133 
   81000   -5493.520001830475   -5493.520001830475   25320.903358992437  -31792.444029217557     978.020668394637 
   82000   -5471.983075198976   -5471.983075198976   25271.106137249837  -31794.838486871060    1051.749274422249 
   83000   -5487.627597136565   -5487.627597136565   25194.210952991034  -31788.703998361118    1106.865448233521 
   84000   -5542.117573412015   -5542.117573412015   25223.388881989744  -31793.557723949143    1028.051268547384 
   85000   -5527.209139776929   -5527.209139776929   25180.460574252706  -31795.329220799653    1087.659506770020 
   86000   -5557.521969300746   -5557.521969300746   25140.817427095284  -31795.692432029398    1097.353035633369 
   87000   -5498.723130717026   -5498.723130717026   25267.665878287717  -31789.561029797023    1023.172020792280 
   88000   -5510.578058854589   -5510.578058854589   25233.996215327326  -31791.325462066194    1046.751187884279 
   89000   -5524.120285542442   -5524.120285542442   25285.740353174016  -31793.831250353745     983.970611637289 
   90000   -5576.174734871580   -5576.174734871580   25132.581015100652  -31793.357898421753    1084.602148449523 
   91000   -5555.894497252259   -5555.894497252259   25131.679037578157  -31791.544389713850    1103.970854883434 
   92000   -5543.840350852253   -5543.840350852253   25058.577100274284  -31793.261172672439    1190.843721545902 
   93000   -5571.300707168604   -5571.300707168604   25135.500393033763  -31793.163067607016    1086.361967404648 
   94000   -5524.457170377173   -5524.457170377173   25157.190875384789  -31793.189039530589    1111.540993768627 
   95000   -5575.301514735114   -5575.301514735114   25114.186906652234  -31791.993416017587    1102.504994630240 
   96000   -5481.345563827799   -5481.345563827799   25155.125527422337  -31788.435397291199    1151.964306041060 
   97000   -5516.223613707629   -5516.223613707629   25186.052978700278  -31789.446999791708    1087.170407383799 
   98000   -5481.090994893781   -5481.090994893781   25193.449627871105  -31791.778136662295    1117.237513897410 
   99000   -5481.561777886425   -5481.561777886425   25184.034112284811  -31786.333068566852    1120.737178395617 
  100000   -5445.082764905983   -5445.082764905983   25337.234723232745  -31791.431245228803    1009.113757090078 
  101000   -5553.124560966560   -5553.124560966560   25139.310919345648  -31797.228981958931    1104.793501646724 
  102000   -5591.370183543164   -5591.370183543164   25095.514819594231  -31795.779692748969    1108.894689611569 
  103000   -5582.221370859195   -5582.221370859195   25106.091935610482  -31792.956337923708    1104.643031454030 
  104000   -5515.247906638619   -5515.247906638619   25191.759905527120  -31789.306793390435    1082.298981224698 
  105000   -5534.041501011132   -5534.041501011132   25125.607342519452  -31789.985400461235    1130.336556930646 
  106000   -5502.202097920905   -5502.202097920905   25258.212136207418  -31789.727056816795    1029.312822688476 
  107000   -5541.651096795849   -5541.651096795849   25153.915247593570  -31789.586661579378    1094.020317189959 
  108000   -5565.856204797175   -5565.856204797175   25059.461336916138  -31786.352080711531    1161.034538998216 
  109000   -5598.828004642004   -5598.828004642004   25082.369758561963  -31793.600781893489    1112.403018689527 
  110000   -5513.359113583050   -5513.359113583050   25232.595771337496  -31788.639786004824    1042.684901084282 
  111000   -5528.823787070865   -5528.823787070865   25114.426357715442  -31788.799839888616    1145.549695102304 
  112000   -5551.022127390443   -5551.022127390443   25161.152408643444  -31793.497071318234    1081.322535284347 
  113000   -5525.799300958617   -5525.799300958617   25185.091498782545  -31792.186490337503    1081.295690596339 
  114000   -5509.311420285998   -5509.311420285998   25206.465991462203  -31788.378382609684    1072.600970861491 
  115000   -5508.137965181846   -5508.137965181846   25287.523307495001  -31791.739693499625     996.078420822775 
  116000   -5501.659496734836   -5501.659496734836   25202.909834523605  -31792.232245118481    1087.662913860041 
  117000   -5532.761668916126   -5532.761668916126   25139.744114997702  -31790.244124401794    1117.738340487971 
  118000   -5487.461039177753   -5487.461039177753   25191.375954009905  -31794.771522704075    1115.934529516419 
  119000   -5591.226982570497   -5591.226982570497   25100.234230353402  -31795.196879031315    1103.735666107418 
  120000   -5542.530578045094   -5542.530578045094   25139.199588759693  -31793.637155605436    1111.906988800643 
  121000   -5490.886237011568   -5490.886237011568   25170.044748401608  -31792.644362288105    1131.713376874928 
  122000   -5510.085950991179   -5510.085950991179   25184.647546630818  -31792.960130836302    1098.226633214310 
  123000   -5510.307072429336   -5510.307072429336   25154.671699403625  -31793.845997343215    1128.867225510254 
  124000   -5475.955930225329   -5475.955930225329   25295.561319197790  -31794.180247966644    1022.662998543519 
  125000   -5530.855799412373   -5530.855799412373   25200.400529528826  -31793.295475938750    1062.039146997553 
  126000   -5502.327555023017   -5502.327555023017   25194.134059399781  -31789.766718289287    1093.305103866493 
  127000   -5455.505479489864   -5455.505479489864   25262.650173691516  -31790.438770300851    1072.283117119465 
  128000   -5392.540657276437   -5392.540657276437   25371.077789674782  -31790.667367119091    1027.048920167875 
  129000   -5548.876958490502   -5548.876958490502   25167.508065543076  -31792.160560102493    1075.775536068917 
  130000   -5562.597094764897   -5562.597094764897   25078.456730217986  -31792.746779390465    1151.692954407589 
  131000   -5476.995234620783   -5476.995234620783   25238.951081160350  -31791.170759896948    1075.224444115811 
  132000   -5507.638087381994   -5507.638087381994   25197.748400681798  -31786.881221236545    1081.494733172754 
  133000   -5541.897182486431   -5541.897182486431   25112.199151682711  -31791.441737176196    1137.345403007055 
  134000   -5582.534077556258   -5582.534077556258   25091.434307181415  -31791.305896081270    1117.337511343599 
  135000   -5540.866839807935   -5540.866839807935   25196.198578808042  -31787.076235170713    1050.010816554734 
  136000   -5506.444847601488   -5506.444847601488   25203.423064163573  -31794.386707402206    1084.518795637142 
  137000   -5450.607601193751   -5450.607601193751   25184.582466063221  -31788.139994663459    1152.949927406481 
  138000   -5589.455271464463   -5589.455271464463   25115.105619296333  -31791.550406450096    1086.989515689296 
  139000   -5600.770248490815   -5600.770248490815   25054.000097908269  -31793.872426447888    1139.102080048803 
  140000   -5524.534180403851   -5524.534180403851   25218.766647541950  -31792.498654287090    1049.197826341290 
  141000   -5537.929842485657   -5537.929842485657   25193.609878414842  -31792.894071678649    1061.354350778149 
  142000   -5484.264833260266   -5484.264833260266   25266.661915513330  -31796.068752011102    1045.142003237507 
  143000   -5523.155973525481   -5523.155973525481   25195.138835827955  -31788.659182259635    1070.364372906202 
  144000   -5510.039421299938   -5510.039421299938   25183.631980900594  -31792.570013734356    1098.898611533828 
  145000   -5497.764423154324   -5497.764423154324   25161.637627846532  -31789.995695483063    1130.593644482209 
  146000   -5490.109710913352   -5490.109710913352   25232.561192643090  -31792.790603157078    1070.119699600634 
  147000   -5529.541392995168   -5529.541392995168   25194.726505106082  -31794.760024565276    1070.492126464025 
  148000   -5541.642996039747   -5541.642996039747   25176.525802735567  -31789.965441288154    1071.796642512836 
  149000   -5531.416405283446   -5531.416405283446   25182.516344024683  -31794.427251160363    1080.494501852233 
  150000   -5521.438127127327   -5521.438127127327   25122.871072770067  -31785.334688741543    1141.025488844151 
  151000   -5543.306278196731   -5543.306278196731   25124.861314955757  -31790.539349491268    1122.371756338783 
  152000   -5534.841570941651   -5534.841570941651   25120.747464717155  -31787.201425219002    1131.612389560202 
  153000   -5527.925955715134   -5527.925955715134   25136.962345764558  -31790.169408542202    1125.281107062512 
  154000   -5484.878532726721   -5484.878532726721   25206.197857869036  -31790.383799464431    1099.307408868670 
  155000   -5443.001560248689   -5443.001560248689   25294.362182326000  -31793.332239278890    1055.968496704202 
  156000   -5479.169361023381   -5479.169361023381   25187.732003354500  -31788.739230122661    1121.837865744781 
  157000   -5448.766136901282   -5448.766136901282   25366.441859591538  -31795.578445048395     980.370448555572 
  158000   -5564.627345963174   -5564.627345963174   25249.670299694844  -31792.737585662941     978.439940004927 
  159000   -5573.663585039067   -5573.663585039067   25118.627843011360  -31790.624610207011    1098.333182156583 
  160000   -5527.702146304975   -5527.702146304975   25190.812750195000  -31792.241537551723    1073.726641051744 
  161000   -5555.147672095147   -5555.147672095147   25170.552454066230  -31792.569951703750    1066.869825542373 
  162000   -5502.525149329922   -5502.525149329922   25208.185904848888  -31790.895678976813    1080.184624798004 
  163000   -5439.510651612363   -5439.510651612363   25301.425997254468  -31788.568338203109    1047.631689336278 
  164000   -5536.128685882177   -5536.128685882177   25187.939762689475  -31792.028111804153    1067.959663232502 
  165000   -5472.268761089283   -5472.268761089283   25326.235279479635  -31792.775643659701     994.271603090787 
  166000   -5519.623608613729   -5519.623608613729   25214.704989446185  -31791.548885825159    1057.220287765249 
  167000   -5566.319519421508   -5566.319519421508   25098.181694244049  -31786.430196257086    1121.928982591528 
  168000   -5457.922270532235   -5457.922270532235   25282.733626280176  -31788.954515534082    1048.298618721668 
  169000   -5501.819027917623   -5501.819027917623   25167.024789654002  -31787.685454372739    1118.841636801119 
  170000   -5483.203754039165   -5483.203754039165   25230.677804564159  -31791.362892292924    1077.481333689606 
  171000   -5483.567364393650   -5483.567364393650   25277.502810038775  -31791.017625459601    1029.947451027178 
  172000   -5512.782814638082   -5512.782814638082   25189.580122121231  -31792.652029498342    1090.289092739033 
  173000   -5518.742147180743   -5518.742147180743   25195.675409138297  -31790.929559924083    1076.512003605040 
  174000   -5508.080108940470   -5508.080108940470   25195.213042028576  -31787.640304712346    1084.347153743302 
  175000   -5509.493119021616   -5509.493119021616   25205.040835237349  -31788.510947693139    1073.976993434175 
  176000   -5549.938508593616   -5549.938508593616   25163.042356819627  -31792.515349088273    1079.534483675037 
  177000   -5526.622570047079   -5526.622570047079   25150.134060909870  -31794.515471762508    1117.758840805554 
  178000   -5488.450965208955   -5488.450965208955   25257.499550764787  -31791.178084461793    1045.227568488053 
  179000   -5482.346182508431   -5482.346182508431   25211.582127774054  -31787.912825345840    1093.984515063354 
  180000   -5543.205203530852   -5543.205203530852   25183.820113589449  -31794.176098759141    1067.150781638840 
  181000   -5526.816708060567   -5526.816708060567   25146.397573265298  -31791.399519280119    1118.185237954253 
  182000   -5562.309389225975   -5562.309389225975   25138.398635905101  -31789.903525952828    1089.195500821753 
  183000   -5568.070376979438   -5568.070376979438   25121.648258977701  -31790.354474428332    1100.635838471195 
  184000   -5518.259346394745   -5518.259346394745   25199.416896449140  -31792.935788234961    1075.259545391068 
  185000   -5576.974272108175   -5576.974272108175   25076.495389575997  -31791.155548856568    1137.685887172398 
  186000   -5590.217798121354   -5590.217798121354   25133.771694519775  -31789.158848460582    1065.169355819447 
  187000   -5502.384332695408   -5502.384332695408   25203.818404196718  -31790.651136720982    1084.448399828852 
  188000   -5533.863746949522   -5533.863746949522   25131.389870459672  -31792.297310555714    1127.043693146522 
  189000   -5506.927300344196   -5506.927300344196   25194.781356408475  -31791.103084156788    1089.394427404115 
  190000   -5537.413227121593   -5537.413227121593   25172.479420551041  -31791.075565670020    1081.182917997389 
  191000   -5485.878728693049   -5485.878728693049   25269.018316053029  -31791.157124730085    1036.260079984009 
  192000   -5519.104195829135   -5519.104195829135   25190.689462130984  -31792.216777770940    1082.423119810817 
  193000   -5549.630051757646   -5549.630051757646   25146.884229917214  -31791.297593760326    1094.783312085466 
  194000   -5506.014505156676   -5506.014505156676   25213.396169746884  -31793.606533661045    1074.195858757482 
  195000   -5531.781626574262   -5531.781626574262   25168.707452852956  -31790.765221535312    1090.276142108091 
  196000   -5527.477882364441   -5527.477882364441   25220.490560358201  -31795.998882918804    1048.030440196167 
  197000   -5527.927411074965   -5527.927411074965   25187.127545169271  -31793.452503042146    1078.397546797912 
  198000   -5572.186483955047   -5572.186483955047   25066.679229724890  -31788.791317849144    1149.925604169211 
  199000   -5502.640145891812   -5502.640145891812   25195.129075290090  -31791.665596844156    1093.896375662257 
  200000   -5538.967025284648   -5538.967025284648   25135.085811799632  -31789.844985096126    1115.792148011843 
  201000   -5549.859453237870   -5549.859453237870   25087.360679192119  -31791.542988975409    1154.322856545419 
  202000   -5490.376196058151   -5490.376196058151   25241.682915328140  -31793.723555406799    1061.664444020515 
  203000   -5571.093294105878   -5571.093294105878   25055.332924176611  -31790.709323470164    1164.283105187678 
  204000   -5462.237200510041   -5462.237200510041   25245.684796401471  -31791.139398946012    1083.217402034503 
  205000   -5590.619524078058   -5590.619524078058   25052.547579250317  -31794.533596620786    1151.366493292408 
  206000   -5539.498311841024   -5539.498311841024   25185.596039321863  -31790.868442910418    1065.774091747532 
  207000   -5578.561377855229   -5578.561377855229   25130.757501873664  -31795.417128238922    1086.098248510026 
  208000   -5527.837223530303   -5527.837223530303   25124.679628305312  -31787.370370298991    1134.853518463376 
  209000   -5472.347079209216   -5472.347079209216   25280.034325480803  -31792.284175260251    1039.902770570234 
  210000   -5474.481225202198   -5474.481225202198   25199.797188911845  -31793.595693187312    1119.317279073267 
  211000   -5414.311490995562   -5414.311490995562   25360.510705204761  -31791.125534272713    1016.303338072390 
  212000   -5513.077599700471   -5513.077599700471   25266.982890140043  -31789.334231786193    1009.273741945675 
  213000   -5487.644887785278   -5487.644887785278   25176.869937273666  -31789.399290834564    1124.884465775626 
  214000   -5511.104470912614   -5511.104470912614   25210.767171640506  -31793.714614411670    1071.842971858552 
  215000   -5517.169257924794   -5517.169257924794   25176.751139895016  -31790.694665277522    1096.774267457715 
  216000   -5519.865575272859   -5519.865575272859   25164.449649645030  -31794.050655378542    1109.735430460651 
  217000   -5460.840882354594   -5460.840882354594   25289.121296809979  -31792.639216863437    1042.677037698864 
  218000   -5523.675808873017   -5523.675808873017   25173.355731159321  -31789.725531629116    1092.693991596779 
  219000   -5458.490931993616   -5458.490931993616   25278.105595361183  -31791.371850083993    1054.775322729197 
  220000   -5488.051644858242   -5488.051644858242   25206.634733562700  -31794.438790699165    1099.752412278224 
  221000   -5564.150673818975   -5564.150673818975   25060.480078574448  -31790.892629085221    1166.261876691802 
  222000   -5568.915973912714   -5568.915973912714   25080.365747812873  -31794.672824048605    1145.391102323016 
  223000   -5468.430269584835   -5468.430269584835   25268.434058900872  -31789.052563882626    1052.188235396929 
  224000   -5566.700612183733   -5566.700612183733   25143.741743635612  -31792.185723991122    1081.743368171779 
  225000   -5485.585191586277   -5485.585191586277   25267.130069005678  -31788.881507788010    1036.166247196057 
  226000   -5513.315073190905   -5513.315073190905   25155.272543457271  -31789.450164260426    1120.862547612249 
  227000   -5572.619303005533   -5572.619303005533   25121.722654059500  -31790.057377287842    1095.715420222803 
  228000   -5514.036234011375   -5514.036234011375   25222.910244136503  -31791.406868859278    1054.460390711396 
  229000   -5495.028755720952   -5495.028755720952   25128.894160665230  -31789.486388056037    1165.563471669861 
  230000   -5543.317233418660   -5543.317233418660   25161.699293261368  -31788.945099491641    1083.928572811612 
  231000   -5458.829641202479   -5458.829641202479   25272.456210719629  -31793.534452921092    1062.248600998979 
  232000   -5471.721800537387   -5471.721800537387   25235.271268542398  -31786.809109238133    1079.816040158346 
  233000   -5517.634222220393   -5517.634222220393   25136.667872464837  -31787.288916550660    1132.986821865432 
  234000   -5541.649239151870   -5541.649239151870   25153.656149764302  -31788.131159108259    1092.825770192085 
  235000   -5557.737404266627   -5557.737404266627   25130.611791488882  -31787.890002287906    1099.540806532397 
  236000   -5536.755343945148   -5536.755343945148   25102.203778660929  -31793.299919260600    1154.340796654522 
  237000   -5553.359200736424   -5553.359200736424   25140.473596704200  -31795.833944037360    1102.001146596728 
  238000   -5520.319227833730   -5520.319227833730   25165.256220880219  -31789.743297541085    1104.167848827138 
  239000   -5568.453473259291   -5568.453473259291   25065.995296390713  -31794.240016752385    1159.791247102379 
  240000   -5573.437657891980   -5573.437657891980   25133.885640060511  -31791.685106915418    1084.361808962929 
  241000   -5536.251035997368   -5536.251035997368   25169.971573351042  -31789.561176066400    1083.338566717990 
  242000   -5566.304645506025   -5566.304645506025   25098.076367480677  -31795.399675477336    1131.018662490636 
  243000   -5555.401253365297   -5555.401253365297   25134.707269507202  -31793.801520478621    1103.692997606121 
  244000   -5548.514654015242   -5548.514654015242   25135.025148313165  -31792.232014678430    1108.692212350022 
  245000   -5482.402472870406   -5482.402472870406   25221.366874429121  -31794.523717665808    1090.754370366285 
  246000   -5489.056222538795   -5489.056222538795   25197.628693928134  -31790.459574677308    1103.774658210381 
  247000   -5461.983727958002   -5461.983727958002   25293.652710611488  -31789.914848860615    1034.278410291123 
  248000   -5496.347510718108   -5496.347510718108   25224.060580406964  -31791.300456421755    1070.892365296686 
  249000   -5503.087037126581   -5503.087037126581   25219.734083791987  -31791.997233052123    1069.176112133552 
  250000   -5524.258033384867   -5524.258033384867   25214.285744856315  -31790.568512125661    1052.024733884478 
  251000   -5519.218056752357   -5519.218056752357   25152.988713333732  -31792.973158538753    1120.766388452664 
  252000   -5547.072253844552   -5547.072253844552   25162.924420897220  -31791.698121004109    1081.701446262344 
  253000   -5554.189823242228   -5554.189823242228   25232.684983860585  -31795.560133038281    1008.685325935466 
  254000   -5505.172732528114   -5505.172732528114   25180.534681126584  -31789.967183543045    1104.259769888345 
  255000   -5547.874548517018   -5547.874548517018   25143.709015930628  -31791.799999306397    1100.216434858751 
  256000   -5518.261027134082   -5518.261027134082   25150.612911283381  -31794.176998415965    1125.303059998502 
  257000   -5506.156731607458   -5506.156731607458   25219.989621916575  -31789.318380834316    1063.172027310284 
  258000   -5502.965741677675   -5502.965741677675   25219.700361805753  -31789.495571474516    1066.829467991089 
  259000   -5497.158516623665   -5497.158516623665   25236.952923738492  -31791.522557167769    1057.411116805615 
  260000   -5538.811051453216   -5538.811051453216   25119.496293590350  -31793.081876203611    1134.774531160047 
  261000   -5496.611550820897   -5496.611550820897   25204.678836486968  -31791.700559721554    1090.410172413691 
  262000   -5550.205680155286   -5550.205680155286   25132.009193174508  -31792.335825787617    1110.120952457823 
  263000   -5544.269853749072   -5544.269853749072   25137.555669401012  -31790.609488813581    1108.783965663498 
  264000   -5561.027174706007   -5561.027174706007   25099.250419522024  -31790.931878476360    1130.654284248331 
  265000   -5546.959330440586   -5546.959330440586   25087.795299558071  -31795.841140831435    1161.086510832774 
  266000   -5481.510194855786   -5481.510194855786   25236.514737156715  -31790.910830151861    1072.885898139358 
  267000   -5541.185407298544   -5541.185407298544   25052.812310534850  -31790.713005787475    1196.715287954079 
  268000   -5497.689263118758   -5497.689263118758   25200.706805619953  -31789.144122373797    1090.748053635081 
  269000   -5548.949906501868   -5548.949906501868   25155.205055477196  -31792.124886581223    1087.969924602153 
  270000   -5577.030039663463   -5577.030039663463   25056.994108745414  -31792.031961378634    1158.007812969758 
  271000   -5491.116256515459   -5491.116256515459   25181.434577136319  -31791.102653534384    1118.551819882610 
  272000   -5520.020934193006   -5520.020934193006   25173.287894815512  -31787.703933272522    1094.395104264005 
  273000   -5549.888526478167   -5549.888526478167   25176.283041027375  -31789.118061076395    1062.946493570854 
  274000   -5455.029387859729   -5455.029387859729   25284.730339606987  -31792.307666877932    1052.547939411215 
  275000   -5542.766946827280   -5542.766946827280   25157.858070413560  -31793.770790140603    1093.145772899765 
  276000   -5514.170301333601   -5514.170301333601   25192.978990787167  -31792.065490148889    1084.916198028121 
  277000   -5579.225076891347   -5579.225076891347   25073.410511671660  -31787.873779812271    1135.238191249257 
  278000   -5577.583679983880   -5577.583679983880   24995.181266943287  -31792.390342659761    1219.625395732594 
  279000   -5575.799218675762   -5575.799218675762   25089.055540637888  -31790.353383832778    1125.498624519127 
  280000   -5514.321909796778   -5514.321909796778   25092.542250356830  -31788.451914486199    1181.587754332593 
  281000   -5512.963243518025   -5512.963243518025   25139.172558779363  -31793.131009900058    1140.995207602669 
  282000   -5501.228314454711   -5501.228314454711   25231.012750839323  -31790.699644578701    1058.458579284666 
  283000   -5546.388670784090   -5546.388670784090   25098.918624994218  -31793.543289281744    1148.235993503439 
  284000   -5493.575554393188   -5493.575554393188   25237.473709400801  -31790.134648132174    1059.085384338182 
  285000   -5545.445190662347   -5545.445190662347   25137.770218622049  -31795.609166246944    1112.393756962550 
  286000   -5518.805763135395   -5518.805763135395   25151.657445682802  -31791.419386659436    1120.956177841243 
  287000   -5555.723398177703   -5555.723398177703   25099.149353039164  -31791.366180533631    1136.493429316766 
  288000   -5565.492375169109   -5565.492375169109   25075.338438500890  -31787.995882865092    1147.165069195095 
  289000   -5546.534414874895   -5546.534414874895   25116.177873563822  -31794.911375206386    1132.199086767667 
  290000   -5563.512326786647   -5563.512326786647   25102.940650783810  -31792.929616526282    1126.476638955824 
  291000   -5502.676934653591   -5502.676934653591   25211.182410696987  -31789.615354443686    1075.756009093114 
  292000   -5570.715820337973   -5570.715820337973   25105.585469453996  -31793.192268581079    1116.890978789114 
  293000   -5556.181015493272   -5556.181015493272   25105.910837025178  -31791.160666586275    1129.068814067827 
  294000   -5535.496862176107   -5535.496862176107   25098.696596946371  -31787.451892591962    1153.258433469480 
  295000   -5470.810059946984   -5470.810059946984   25244.674093028309  -31790.358312105858    1074.874159130564 
  296000   -5543.934385943379   -5543.934385943379   25103.048680879045  -31791.862981745624    1144.879914923194 
  297000   -5552.314361813147   -5552.314361813147   25081.917162792361  -31790.865123829164    1156.633599223655 
  298000   -5514.885361200442   -5514.885361200442   25163.287139175009  -31789.183934909342    1111.011434533893 
  299000   -5509.687619197703   -5509.687619197703   25208.223157868022  -31790.594297850545    1072.683520784821 
  300000   -5506.527404561290   -5506.527404561290   25250.137397157527  -31793.563008352867    1036.898206634048 
  301000   -5531.440481680715   -5531.440481680715   25114.255391645085  -31787.898373520045    1142.202500194245 
  302000   -5468.299414361769   -5468.299414361769   25173.768949481058  -31789.135144014352    1147.066780171526 
  303000   -5573.230035144788   -5573.230035144788   25123.041664031356  -31792.374177735852    1096.102478559705 
  304000   -5535.408829634744   -5535.408829634744   25202.293422886192  -31792.292480483709    1054.590227962772 
  305000   -5560.495310329727   -5560.495310329727   25139.674366444837  -31791.543362167879    1091.373685393316 
  306000   -5516.709811968667   -5516.709811968667   25166.916263929779  -31792.344564897641    1108.718488999202 
  307000   -5479.162966474330   -5479.162966474330   25259.250148284769  -31792.173409539068    1053.760294779966 
  308000   -5561.164102818984   -5561.164102818984   25165.264057235327  -31787.610142231570    1061.181982177257 
  309000   -5540.672204696635   -5540.672204696635   25173.206006342618  -31789.223204088597    1075.344993049348 
  310000   -5533.930285693430   -5533.930285693430   25151.485308792209  -31792.260938010797    1106.845343525161 
  311000   -5515.289927220292   -5515.289927220292   25199.889127325216  -31794.132118690119    1078.953064144612 
  312000   -5530.695733810309   -5530.695733810309   25130.201950529703  -31788.891019719922    1127.993335379911 
  313000   -5507.001671741687   -5507.001671741687   25242.334982977001  -31792.044914606900    1042.708259888209 
  314000   -5529.024155882580   -5529.024155882580   25157.899039661745  -31791.534691333087    1104.611495788766 
  315000   -5611.196774370441   -5611.196774370441   25056.735829595000  -31794.937081078722    1127.004477113284 
  316000   -5526.719309282627   -5526.719309282627   25188.686926633771  -31785.092193825243    1069.685957908847 
  317000   -5570.224175929507   -5570.224175929507   25047.342400217021  -31790.582025443851    1173.015449297322 
  318000   -5595.157045910415   -5595.157045910415   25069.030987707531  -31794.950135548712    1130.762101930770 
  319000   -5501.723124871161   -5501.723124871161   25172.084000190167  -31790.792862685514    1116.985737624184 
  320000   -5541.814205514645   -5541.814205514645   25173.339414639660  -31789.821317796104    1074.667697641804 
  321000   -5446.671577750483   -5446.671577750483   25303.511171405793  -31793.899879271736    1043.717130115456 
  322000   -5477.781446738194   -5477.781446738194   25217.926627355162  -31792.286028425166    1096.577954331807 
  323000   -5530.261938343599   -5530.261938343599   25157.587712409539  -31790.388508852360    1102.538858099221 
  324000   -5527.746149049082   -5527.746149049082   25149.828612966696  -31790.836699438307    1113.261937422527 
  325000   -5553.881540084327   -5553.881540084327   25167.337820124772  -31795.740792216497    1074.521432007398 
  326000   -5511.501413861486   -5511.501413861486   25221.151821935509  -31790.119119146861    1057.465883349864 
  327000   -5549.453954568991   -5549.453954568991   25065.517629969130  -31789.877826733726    1174.906242195605 
  328000   -5545.430966666132   -5545.430966666132   25178.720320488348  -31788.888809345252    1064.737522190772 
  329000   -5526.166078668462   -5526.166078668462   25150.713296915310  -31791.468550859379    1114.589175275611 
  330000   -5559.955080523439   -5559.955080523439   25161.609609444036  -31792.365748914985    1070.801058947506 
  331000   -5495.871270947595   -5495.871270947595   25196.963889364266  -31788.563258709706    1095.728098397844 
  332000   -5470.047940546392   -5470.047940546392   25237.399432687154  -31793.427564372170    1085.980191138623 
  333000   -5500.245231210196   -5500.245231210196   25165.247896981382  -31786.731667952754    1121.238539761177 
  334000   -5502.681021175325   -5502.681021175325   25207.961965727980  -31791.439612427370    1080.796625524070 
  335000   -5529.011860174396   -5529.011860174396   25106.868871943658  -31792.790953183619    1156.910221065565 
  336000   -5527.558657528039   -5527.558657528039   25227.371268183131  -31794.261149041035    1039.331223329865 
  337000   -5551.271933350046   -5551.271933350046   25159.698504596097  -31790.703750916884    1079.733312970741 
  338000   -5496.383024743642   -5496.383024743642   25182.035812213639  -31789.285203681560    1110.866366724283 
  339000   -5541.024914175789   -5541.024914175789   25148.352843748798  -31793.096208141978    1103.718450217393 
  340000   -5529.006939654933   -5529.006939654933   25190.504068842602  -31792.682018674077    1073.171010176540 
  341000   -5539.577810177714   -5539.577810177714   25164.608079626050  -31793.091431351393    1088.905541547630 
  342000   -5532.076025700906   -5532.076025700906   25154.350716114797  -31792.739406152810    1106.312664337104 
  343000   -5588.903067325431   -5588.903067325431   25155.636410140476  -31794.786188232807    1050.246710766899 
  344000   -5507.440967508184   -5507.440967508184   25232.619510272962  -31792.005026592062    1051.944548810916 
  345000   -5497.849986397454   -5497.849986397454   25224.962569255418  -31792.792195880025    1069.979640227153 
  346000   -5495.144561180154   -5495.144561180154   25191.491075790684  -31786.558753229037    1099.923116258203 
  347000   -5456.163037584873   -5456.163037584873   25216.637426534231  -31787.183871577749    1114.383407458645 
  348000   -5541.142702260764   -5541.142702260764   25145.343090768358  -31794.831003555471    1108.345210526346 
  349000   -5521.151774850408   -5521.151774850408   25230.071582590288  -31791.407968623244    1040.184611182552 
  350000   -5456.008375925961   -5456.008375925961   25162.364709829424  -31792.143599785410    1173.770514030031 
  351000   -5548.564602689465   -5548.564602689465   25154.744140574221  -31791.780135827707    1088.471392564019 
  352000   -5546.946289073749   -5546.946289073749   25171.005843703999  -31796.729732411877    1078.777599634125 
  353000   -5543.289129957095   -5543.289129957095   25081.089452205353  -31787.318044932417    1162.939462769965 
  354000   -5522.181099078221   -5522.181099078221   25195.286838123939  -31790.343414542614    1072.875477340455 
  355000   -5562.116177021308   -5562.116177021308   25120.621419141986  -31791.838230359037    1109.100634195745 
  356000   -5531.056618397350   -5531.056618397350   25148.175926777170  -31787.111554670300    1107.879009495782 
  357000   -5515.983250620098   -5515.983250620098   25140.739285056268  -31791.568957072457    1134.846421396093 
  358000   -5538.572021975782   -5538.572021975782   25076.772526803623  -31790.927428094652    1175.582879315248 
  359000   -5490.534007939339   -5490.534007939339   25240.738240407190  -31791.810698354453    1060.538450007921 
  360000   -5560.329040864322   -5560.329040864322   25174.730339002195  -31793.063376609945    1058.003996743428 
  361000   -5501.085774869374   -5501.085774869374   25179.510349489137  -31792.838104792856    1112.241980434346 
  362000   -5497.851688109746   -5497.851688109746   25239.832866889959  -31793.469873453381    1055.785318453675 
  363000   -5536.220409850575   -5536.220409850575   25137.065760547070  -31790.365318283613    1117.079147885960 
  364000   -5537.952495481495   -5537.952495481495   25197.044785717640  -31793.030859628077    1058.033578428941 
  365000   -5509.860716907271   -5509.860716907271   25216.441591830047  -31791.542542459163    1065.240233721848 
  366000   -5499.808884436075   -5499.808884436075   25182.242347233947  -31792.999415266240    1110.948183596215 
  367000   -5513.739886461728   -5513.739886461728   25144.318453531101  -31794.643757214591    1136.585417221757 
  368000   -5487.407485659020   -5487.407485659020   25305.672994064029  -31793.599300266531    1000.518820543477 
  369000   -5618.383652490891   -5618.383652490891   25041.006046604456  -31794.262108514798    1134.872409419448 
  370000   -5526.187785608847   -5526.187785608847   25194.374387700154  -31792.587205078140    1072.025031769142 
  371000   -5537.000479883489   -5537.000479883489   25151.956926892763  -31792.779800936802    1103.822394160549 
  372000   -5556.098671685799   -5556.098671685799   25117.401274672866  -31791.617579679543    1118.117633320882 
  373000   -5592.691500565907   -5592.691500565907   25085.507992351286  -31793.805392406961    1115.605899489766 
  374000   -5498.286994642021   -5498.286994642021   25252.717407187563  -31791.727113975267    1040.722712145683 
  375000   -5503.214098733151   -5503.214098733151   25281.689956864629  -31796.754435135525    1011.850379537745 
  376000   -5478.500366926000   -5478.500366926000   25317.525885552379  -31792.094532826883     996.068280348507 
  377000   -5516.185810556362   -5516.185810556362   25171.792198272662  -31792.958991812331    1104.980982983307 
  378000   -5560.110412306069   -5560.110412306069   25089.957581636150  -31792.771262435159    1142.703268492940 
  379000   -5518.881249066704   -5518.881249066704   25237.085339950958  -31796.725950242457    1040.759361224795 
  380000   -5475.753870392105   -5475.753870392105   25149.953533333992  -31790.175864462817    1164.468460736721 
  381000   -5540.268100721314   -5540.268100721314   25150.162021340562  -31793.858111079560    1103.427989017685 
  382000   -5531.661057911646   -5531.661057911646   25173.026344999955  -31793.305673463219    1088.618270551618 
  383000   -5524.057313235204   -5524.057313235204   25184.777718824575  -31793.286282179008    1084.451250119227 
  384000   -5489.318159705788   -5489.318159705788   25232.059574549254  -31791.580478755943    1070.202744500901 
  385000   -5473.074368129230   -5473.074368129230   25321.561359804793  -31788.927396923267     994.291668989248 
  386000   -5481.579527160371   -5481.579527160371   25207.869725842163  -31791.428525083331    1101.979272080796 
  387000   -5448.005349156261   -5448.005349156261   25242.217184033056  -31786.758670598279    1096.536137408962 
  388000   -5480.556321603315   -5480.556321603315   25221.500292770193  -31792.087138203886    1090.030523830374 
  389000   -5547.648068484286   -5547.648068484286   25212.142975752042  -31791.943270378510    1032.152226142179 
  390000   -5537.574396794960   -5537.574396794960   25062.292998524405  -31791.837531191868    1191.970135872505 
  391000   -5483.418242128279   -5483.418242128279   25234.362158470802  -31790.455240807572    1072.674840208493 
  392000   -5578.325399244502   -5578.325399244502   25079.390915761494  -31791.060881815989    1133.344566809988 
  393000   -5525.350854595370   -5525.350854595370   25180.722544614902  -31790.308758926793    1084.235359716524 
  394000   -5592.674541995504   -5592.674541995504   25044.103608104266  -31790.679368528305    1153.901218428532 
  395000   -5516.505785533864   -5516.505785533864   25275.114093305387  -31791.023470855438     999.403592016190 
  396000   -5505.421117927410   -5505.421117927410   25205.112961668558  -31790.400645243888    1079.866565647925 
  397000   -5546.673563833094   -5546.673563833094   25198.696233656308  -31790.779053718776    1045.409256229374 
  398000   -5468.487167365034   -5468.487167365034   25229.451782656055  -31786.044525871148    1088.105575850058 
  399000   -5579.368724975346   -5579.368724975346   25066.062622965328  -31795.868382902874    1150.437034962199 
  400000   -5527.745551574670   -5527.745551574670   25215.074211601997  -31792.360325250804    1049.540562074143 
  401000   -5488.635095276331   -5488.635095276331   25191.944549480831  -31790.048299814149    1109.468655056982 
  402000   -5536.223941970293   -5536.223941970293   25177.920531085329  -31792.993091852564    1078.848618796944 
  403000   -5544.955191898138   -5544.955191898138   25174.725354820017  -31795.337487082863    1075.656940364708 
  404000   -5505.138243640842   -5505.138243640842   25214.640405675884  -31789.465282138186    1069.686632821461 
  405000   -5547.024405834138   -5547.024405834138   25203.428904810356  -31792.706742981532    1042.253432337040 
  406000   -5512.803076343207   -5512.803076343207   25234.218372369291  -31789.353931520884    1042.332482808389 
  407000   -5581.957224626123   -5581.957224626123   25115.565655326998  -31794.683279933961    1097.160399980839 
  408000   -5519.114791913027   -5519.114791913027   25204.052759575417  -31792.797267691345    1069.629716202902 
  409000   -5564.414577140233   -5564.414577140233   25147.431137006999  -31795.740784134483    1083.895069987246 
  410000   -5528.471416819313   -5528.471416819313   25149.446084947685  -31791.115734270676    1113.198232503680 
  411000   -5503.953348038078   -5503.953348038078   25149.845492699271  -31789.853529344498    1136.054688607150 
  412000   -5485.808596291903   -5485.808596291903   25248.073185932626  -31793.206313975130    1059.324531750595 
  413000   -5482.958067997915   -5482.958067997915   25225.684274355259  -31785.957810771451    1077.315468418278 
  414000   -5540.961982896275   -5540.961982896275   25098.865544571279  -31790.723719248315    1150.896191780763 
  415000   -5577.276182707184   -5577.276182707184   25082.094233259384  -31789.787312762510    1130.416896795942 
  416000   -5620.707138135811   -5620.707138135811   25080.248108446540  -31793.998969441876    1093.043722859524 
  417000   -5495.719888714688   -5495.719888714688   25189.967827363209  -31789.025799277399    1103.338083199503 
  418000   -5565.742659779105   -5565.742659779105   25143.168485047074  -31793.347231469113    1084.436086642934 
  419000   -5562.712071171401   -5562.712071171401   25104.578675383684  -31794.433614252812    1127.142867697727 
  420000   -5556.488073567110   -5556.488073567110   25210.630289855166  -31789.664890880329    1022.546527458052 
  421000   -5534.465890574160   -5534.465890574160   25133.648444825318  -31792.215067072502    1124.100731673027 
  422000   -5549.830430797545   -5549.830430797545   25176.708834822650  -31793.828944529603    1067.289678909405 
  423000   -5519.247507120883   -5519.247507120883   25176.196875961254  -31788.820872323595    1093.376489241454 
  424000   -5481.659587357382   -5481.659587357382   25211.178060943246  -31790.819447539583    1097.981799238948 
  425000   -5476.788284636463   -5476.788284636463   25235.821453352284  -31784.417091807733    1071.807353818991 
  426000   -5568.325913525234   -5568.325913525234   25174.002319310279  -31795.714165952388    1053.385933116876 
  427000   -5521.576566331052   -5521.576566331052   25203.377127700987  -31789.979405378581    1065.025711346540 
  428000   -5574.595124506381   -5574.595124506381   25039.803458783805  -31793.303614567267    1178.905031277080 
  429000   -5564.289967361143   -5564.289967361143   25101.555263331680  -31792.960695493628    1127.115464800809 
  430000   -5574.970727664258   -5574.970727664258   25109.538954510957  -31790.212196272245    1105.702514097031 
  431000   -5473.088040892108   -5473.088040892108   25267.339596356127  -31785.745911134043    1045.318273885813 
  432000   -5557.871838296283   -5557.871838296283   25140.805043667122  -31794.995919721579    1096.319037758177 
  433000   -5498.956476348609   -5498.956476348609   25200.346298406421  -31792.556859871580    1093.254085116548 
  434000   -5529.667855469816   -5529.667855469816   25125.172036555672  -31793.982791717171    1139.142899691687 
  435000   -5477.797540997908   -5477.797540997908   25294.184695475898  -31792.177596067839    1020.195359594035 
  436000   -5469.480404338614   -5469.480404338614   25298.428495300846  -31792.626809806596    1024.717910167132 
  437000   -5481.561573697658   -5481.561573697658   25209.827756176881  -31792.837285855308    1101.447955980769 
  438000   -5445.006012271551   -5445.006012271551   25274.417896038387  -31783.851577068279    1064.427668758341 
  439000   -5445.579372103053   -5445.579372103053   25322.043209599957  -31787.616695405795    1019.994113702788 
  440000   -5505.440682725701   -5505.440682725701   25197.239554612592  -31795.384266018340    1092.704028680052 
  441000   -5583.454534081535   -5583.454534081535   25035.489547793411  -31793.301080226945    1174.356998351997 
  442000   -5480.009235018366   -5480.009235018366   25245.023721362726  -31787.770340137427    1062.737383756338 
  443000   -5472.672353641661   -5472.672353641661   25245.807994576709  -31789.291059245741    1070.810711027368 
  444000   -5537.595003521186   -5537.595003521186   25061.060926145452  -31789.261488343938    1190.605558677301 
  445000   -5601.593186449922   -5601.593186449922   25077.353089281445  -31793.909316155507    1114.963040424142 
  446000   -5504.704011268390   -5504.704011268390   25175.576164631766  -31791.016316965055    1110.736141064901 
  447000   -5543.607078337409   -5543.607078337409   25149.205657305880  -31788.844088107595    1096.031352464313 
  448000   -5492.516720333562   -5492.516720333562   25219.384183732534  -31792.150317790551    1080.249413724447 
  449000   -5523.799393320642   -5523.799393320642   25179.058930576783  -31793.068136695914    1090.209812798488 
  450000   -5481.428317615118   -5481.428317615118   25268.550458334077  -31790.797128202084    1040.818352252894 
  451000   -5572.927683204023   -5572.927683204023   25070.223516958500  -31791.766519336619    1148.615319174095 
  452000   -5530.823602000182   -5530.823602000182   25170.812925959392  -31793.848366301190    1092.211838341618 
  453000   -5553.413746518578   -5553.413746518578   25109.066532634479  -31789.459294622822    1126.979015469765 
  454000   -5563.143338131409   -5563.143338131409   25107.141902190502  -31789.387975690326    1119.102735368418 
  455000   -5474.178165091816   -5474.178165091816   25237.469440709909  -31786.730571964275    1075.082966162550 
  456000   -5527.588211610411   -5527.588211610411   25211.140375619725  -31794.053052706506    1055.324465476372 
  457000   -5513.532608580812   -5513.532608580812   25143.018183642966  -31793.020941520008    1136.470149296229 
  458000   -5518.546362239693   -5518.546362239693   25270.601445641383  -31791.712211734113    1002.564403853036 
  459000   -5478.047087832110   -5478.047087832110   25215.716342801046  -31792.856124054997    1099.092693421837 
  460000   -5537.422146344816   -5537.422146344816   25126.486139147128  -31794.069031146824    1130.160745654883 
  461000   -5532.484415906714   -5532.484415906714   25167.643362782746  -31792.432258821071    1092.304480131616 
  462000   -5474.185848072564   -5474.185848072564   25182.713913545060  -31788.128135988572    1131.228374370947 
  463000   -5512.928835598668   -5512.928835598668   25202.662336696834  -31791.432689740715    1075.841517445208 
  464000   -5535.713103528000   -5535.713103528000   25164.967341353771  -31790.716355851586    1090.035910969812 
  465000   -5595.579989824157   -5595.579989824157   25119.139834922913  -31790.359667678636    1075.639842931567 
  466000   -5544.159381657715   -5544.159381657715   25130.539175168709  -31792.331934689872    1117.633377863448 
  467000   -5517.218351160547   -5517.218351160547   25197.417197979375  -31792.074214257002    1077.438665117075 
  468000   -5601.957055421190   -5601.957055421190   25081.541016507188  -31790.767052595344    1107.268980666968 
  469000   -5490.795973402826   -5490.795973402826   25245.110604022153  -31789.945015731540    1054.038438306564 
  470000   -5502.822738416744   -5502.822738416744   25205.733579195323  -31790.524220234514    1081.967902622447 
  471000   -5538.520857852986   -5538.520857852986   25170.970873752918  -31792.443659496963    1082.951927891061 
  472000   -5540.895860888253   -5540.895860888253   25163.372532935166  -31790.334485616826    1086.066091793407 
  473000   -5572.087279892268   -5572.087279892268   25080.681287422383  -31794.202806501198    1141.434239186546 
  474000   -5518.168370452633   -5518.168370452633   25186.687650908982  -31791.006581582165    1086.150560220555 
  475000   -5490.713142631601   -5490.713142631601   25188.965505967626  -31788.723089732684    1109.044441133457 
  476000   -5588.921227273473   -5588.921227273473   25085.998050227390  -31795.752810752947    1120.833533252085 
  477000   -5514.471929072941   -5514.471929072941   25232.520020601714  -31788.822137813346    1041.830188138693 
  478000   -5480.767914609565   -5480.767914609565   25194.729579736231  -31787.577532612420    1112.080038266618 
  479000   -5546.712767167031   -5546.712767167031   25184.090052609918  -31792.435657962284    1061.632838185336 
  480000   -5488.751954981941   -5488.751954981941   25269.685789995692  -31790.544090246905    1032.106345269275 
  481000   -5571.027149266371   -5571.027149266371   25094.115496481427  -31793.171459090219    1128.028813342419 
  482000   -5585.925520412111   -5585.925520412111   25093.595422395909  -31793.433674878233    1113.912732070217 
  483000   -5496.696432133369   -5496.696432133369   25236.027104925553  -31789.153413912256    1056.429876853335 
  484000   -5555.112136227752   -5555.112136227752   25135.058770563563  -31788.331333978887    1098.160427187573 
  485000   -5551.372671564164   -5551.372671564164   25167.728008800823  -31791.400738243534    1072.300057878550 
  486000   -5515.816872875708   -5515.816872875708   25172.042556761593  -31786.711556028342    1098.852126391035 
  487000   -5487.809046080958   -5487.809046080958   25162.136044478390  -31788.792804852299    1138.847714292949 
  488000   -5482.307606742990   -5482.307606742990   25232.921473251361  -31793.609290498567    1078.380210504217 
  489000   -5521.867922117952   -5521.867922117952   25176.796447477183  -31792.823172359960    1094.158802764825 
  490000   -5471.363992922590   -5471.363992922590   25278.508774757458  -31791.185321497665    1041.312553817618 
  491000   -5515.175331891380   -5515.175331891380   25173.025604941686  -31793.659335072796    1105.458398239728 
  492000   -5569.150735781248   -5569.150735781248   25149.956990954641  -31796.768484272146    1077.660757536259 
  493000   -5499.812425929944   -5499.812425929944   25190.636715371966  -31790.932888770360    1100.483747468450 
  494000   -5558.420631301669   -5558.420631301669   25156.049408692103  -31793.593918801900    1079.123878808125 
  495000   -5524.279199549590   -5524.279199549590   25121.483295693164  -31789.924974369183    1144.162479126431 
  496000   -5563.114963832228   -5563.114963832228   25150.717630155850  -31794.296810640957    1080.464216652876 
  497000   -5533.820315710138   -5533.820315710138   25097.226812815825  -31791.681940895334    1160.634812369368 
  498000   -5544.969183714002   -5544.969183714002   25139.276046351813  -31791.940736890527    1107.695506824715 
  499000   -5562.165275405030   -5562.165275405030   25128.909631715520  -31794.304816140437    1103.229909019879 
  500000   -5483.359378533198   -5483.359378533198   25240.475627605902  -31793.913493214757    1070.078487075658 
  501000   -5471.731534139843   -5471.731534139843   25261.932003472473  -31792.549477663048    1058.885940050731 
  502000   -5514.790747477862   -5514.790747477862   25125.138881128492  -31792.244731099763    1152.315102493410 
  503000   -5574.584924696472   -5574.584924696472   25102.347470765206  -31790.982955825712    1114.050560364034 
  504000   -5519.375338452486   -5519.375338452486   25174.064291367089  -31792.455102165517    1099.015472345950 
  505000   -5551.464794986041   -5551.464794986041   25059.201439090219  -31793.753034507183    1183.086800430923 
  506000   -5501.110716720959   -5501.110716720959   25190.731891664393  -31793.974736079228    1102.132127693876 
  507000   -5525.659282149816   -5525.659282149816   25208.586473621875  -31794.384413226860    1060.138657455169 
  508000   -5524.967800569226   -5524.967800569226   25189.926558231928  -31792.857722547698    1077.963363746548 
  509000   -5514.898753083413   -5514.898753083413   25221.355270294946  -31791.250032292464    1054.996008914110 
  510000   -5491.090177086662   -5491.090177086662   25210.861710615289  -31789.068412087669    1087.116524385719 
  511000   -5565.062304356485   -5565.062304356485   25156.591346120618  -31793.113157627387    1071.459507150283 
  512000   -5503.521445564020   -5503.521445564020   25270.343625975129  -31790.673055049683    1016.807983510535 
  513000   -5530.212096046151   -5530.212096046151   25250.439901569080  -31792.859746048143    1012.207748432910 
  514000   -5530.350544044068   -5530.350544044068   25182.796286860281  -31795.838712106215    1082.691881201868 
  515000   -5512.358368519857   -5512.358368519857   25222.647918253995  -31792.425086659208    1057.418799885358 
  516000   -5529.074571111581   -5529.074571111581   25204.237382439234  -31790.102709498628    1056.790755947811 
  517000   -5539.240318450509   -5539.240318450509   25157.332784097423  -31791.785644244112    1095.212541696178 
  518000   -5491.814525583017   -5491.814525583017   25194.982393576967  -31788.095004538984    1101.298085378994 
  519000   -5530.702772534176   -5530.702772534176   25157.955352368677  -31791.398636114518    1102.740511211669 
  520000   -5540.610748265291   -5540.610748265291   25191.406570956526  -31793.448222393879    1061.430903172062 
  521000   -5497.630743965543   -5497.630743965543   25187.005743892943  -31789.068979095839    1104.432491237354 
  522000   -5524.423897021265   -5524.423897021265   25203.212649025514  -31793.555516901997    1065.918970855219 
  523000   -5506.385799416894   -5506.385799416894   25156.996054566305  -31795.083749268841    1131.701895285643 
  524000   -5570.264872180134   -5570.264872180134   25067.902746316966  -31795.649179012413    1157.481560515318 
  525000   -5600.688190313307   -5600.688190313307   25083.902477159067  -31791.506989671041    1106.916322198671 
  526000   -5494.410979570162   -5494.410979570162   25145.356866717448  -31788.471823177202    1148.703976889590 
  527000   -5492.176694163383   -5492.176694163383   25306.613153446262  -31791.719027156723     992.929179547079 
  528000   -5509.456470442252   -5509.456470442252   25132.880128843914  -31788.821688307908    1146.485089021741 
  529000   -5531.940586157587   -5531.940586157587   25192.791194787264  -31791.877500900653    1067.145719955801 
  530000   -5494.842229877118   -5494.842229877118   25163.715751356387  -31791.412733833928    1132.854752600422 
  531000   -5549.117174099578   -5549.117174099578   25135.767512128095  -31795.696109337267    1110.811423109590 
  532000   -5539.092577990516   -5539.092577990516   25162.057471255899  -31794.037402335769    1092.887353089353 
  533000   -5523.593307337775   -5523.593307337775   25189.222116423181  -31790.341224411437    1077.525800650479 
  534000   -5545.093588761156   -5545.093588761156   25124.453833797354  -31795.023028761243    1125.475606202732 
  535000   -5539.689910225712   -5539.689910225712   25154.274210698961  -31791.649304664690    1097.685183740012 
  536000   -5551.404886545923   -5551.404886545923   25150.994274525598  -31795.548518153348    1093.149357081825 
  537000   -5483.892155762976   -5483.892155762976   25303.783726355734  -31791.519861027005    1003.843978908296 
  538000   -5452.542002208545   -5452.542002208545   25316.270681814043  -31789.501486583293    1020.688802560703 
  539000   -5524.884080878153   -5524.884080878153   25195.215214124335  -31791.973850072111    1071.874555069620 
  540000   -5468.065466530592   -5468.065466530592   25229.559025634426  -31792.015649127708    1094.391156962691 
  541000   -5477.703333520651   -5477.703333520651   25275.024151924357  -31790.259919739408    1037.532434294398 
  542000   -5528.131090775758   -5528.131090775758   25168.029517885425  -31789.404664285736    1093.244055624552 
  543000   -5552.485180099531   -5552.485180099531   25158.836648797369  -31795.468726798910    1084.146897902013 
  544000   -5546.610968589179   -5546.610968589179   25085.751135624760  -31794.504087687739    1162.141983473801 
  545000   -5492.986094659198   -5492.986094659198   25190.681590319276  -31791.050314850803    1107.382629872333 
  546000   -5507.109089126985   -5507.109089126985   25197.611098395650  -31788.498648250665    1083.778460728035 
  547000   -5472.325377324942   -5472.325377324942   25300.671892417464  -31789.669852257935    1016.672582515530 
  548000   -5485.060728005679   -5485.060728005679   25183.847353424830  -31794.435092906064    1125.527011475555 
  549000   -5561.893054654818   -5561.893054654818   25117.110382331841  -31791.898840478705    1112.895403492048 
  550000   -5521.660517979097   -5521.660517979097   25158.178216177883  -31791.197306002596    1111.358571845616 
  551000   -5495.662733406978   -5495.662733406978   25164.265953134454  -31792.251756221092    1132.323069679656 
  552000   -5493.935737617187   -5493.935737617187   25260.525533100434  -31790.378736310220    1035.917465592599 
  553000   -5468.240633956408   -5468.240633956408   25244.877406853288  -31789.930953012259    1076.812912202566 
  554000   -5511.291040543922   -5511.291040543922   25257.883815248275  -31788.787791475770    1019.612935683574 
  555000   -5559.333719851398   -5559.333719851398   25155.095914764832  -31794.717182011802    1080.287547395569 
  556000   -5500.550634645439   -5500.550634645439   25187.246570128329  -31787.815138115704    1100.017933341940 
  557000   -5511.149585327210   -5511.149585327210   25217.266708058880  -31795.535964716692    1067.119671330601 
  558000   -5552.801927885896   -5552.801927885896   25123.427616375458  -31794.512615913154    1118.283071651800 
  559000   -5505.781411208831   -5505.781411208831   25238.734121910897  -31790.762026004093    1046.246492884369 
  560000   -5465.854987691619   -5465.854987691619   25194.419509856911  -31789.747580195228    1129.473082646699 
  561000   -5514.390019442511   -5514.390019442511   25165.370761228143  -31794.457834220510    1114.697053549856 
  562000   -5492.232671473550   -5492.232671473550   25277.339069407153  -31795.091056438050    1025.519315557349 
  563000   -5527.193252777735   -5527.193252777735   25250.044349951990  -31791.205859159094    1013.968256429365 
  564000   -5463.619449386068   -5463.619449386068   25211.843349308299  -31789.103443315911    1113.640644621547 
  565000   -5463.560981714621   -5463.560981714621   25269.656403932422  -31788.510918603421    1055.293532956375 
  566000   -5517.892212401846   -5517.892212401846   25205.703910373260  -31789.763096854469    1066.166974079360 
  567000   -5520.956638658870   -5520.956638658870   25188.254083154574  -31792.563254315395    1083.352532501950 
  568000   -5547.935681641022   -5547.935681641022   25090.815656215105  -31786.852530702097    1148.101192845968 
  569000   -5469.136243671146   -5469.136243671146   25277.065185377378  -31790.708317900007    1044.506888851490 
  570000   -5519.013429417762   -5519.013429417762   25131.814132941105  -31792.006511225511    1141.178948866641 
  571000   -5485.576784794037   -5485.576784794037   25204.494367724368  -31790.582701307027    1100.511548788623 
  572000   -5562.656238539344   -5562.656238539344   25130.175747627061  -31793.847327162166    1101.015340995759 
  573000   -5597.218865902647   -5597.218865902647   25080.108536379019  -31793.655032316132    1116.327630034472 
  574000   -5521.901501732980   -5521.901501732980   25197.673032411854  -31789.627385857071    1070.052851712230 
  575000   -5556.104188919388   -5556.104188919388   25119.309209838182  -31793.305601574775    1117.892202817201 
  576000   -5586.805144009071   -5586.805144009071   25127.772487460075  -31790.674098142783    1076.096466673633 
  577000   -5475.185910925622   -5475.185910925622   25201.167895369959  -31788.694287625149    1112.340481329564 
  578000   -5504.326401557151   -5504.326401557151   25101.829678203692  -31793.272668775993    1187.116589015149 
  579000   -5513.257586673139   -5513.257586673139   25206.539499044815  -31791.670227098355    1071.873141380406 
  580000   -5458.769488595997   -5458.769488595997   25260.709013512420  -31789.814318813147    1070.335816704729 
  581000   -5504.525714590516   -5504.525714590516   25242.287347757283  -31792.099717209738    1045.286654861936 
  582000   -5486.078897009844   -5486.078897009844   25236.988349359846  -31793.274618159128    1070.207371789439 
  583000   -5555.564525261121   -5555.564525261121   25156.334073409664  -31788.819509893714    1076.920911222926 
  584000   -5593.977134452623   -5593.977134452623   25130.121835296944  -31796.341948261619    1072.242978512053 
  585000   -5524.590510105012   -5524.590510105012   25193.266567985309  -31790.787702615689    1072.930624525369 
  586000   -5497.326397770306   -5497.326397770306   25216.956496308165  -31791.194323027492    1076.911428949023 
  587000   -5515.573046129521   -5515.573046129521   25171.886541886190  -31792.054426387931    1104.594838372225 
  588000   -5592.957639466505   -5592.957639466505   25097.286596267604  -31793.408197642959    1103.163961908847 
  589000   -5519.016183391628   -5519.016183391628   25196.185311472145  -31792.057875535414    1076.856380671641 
  590000   -5499.975674790097   -5499.975674790097   25179.916368234561  -31788.160085726122    1108.268042701467 
  591000   -5468.778494091664   -5468.778494091664   25193.528018102399  -31793.492141982104    1131.185629788044 
  592000   -5503.485411701578   -5503.485411701578   25133.999107000967  -31790.355627891360    1152.871109188813 
  593000   -5509.218793124688   -5509.218793124688   25169.881198269155  -31790.261733389139    1111.161741995295 
  594000   -5472.375197805952   -5472.375197805952   25238.228231108154  -31794.609992916452    1084.006564002349 
  595000   -5579.236238045494   -5579.236238045494   25115.616578172245  -31792.095385700573    1097.242569482835 
  596000   -5501.788647431531   -5501.788647431531   25201.770481073916  -31790.691927719250    1087.132799213806 
  597000   -5493.643000880475   -5493.643000880475   25212.774849012349  -31793.960190491940    1087.542340599115 
  598000   -5515.875423959737   -5515.875423959737   25197.803468137372  -31791.618926658255    1077.940034561145 
  599000   -5464.015080901438   -5464.015080901438   25293.969873651105  -31790.727494833533    1032.742540280989 
  600000   -5551.936128559639   -5551.936128559639   25180.166218851791  -31794.968416486758    1062.866069075332 
  601000   -5494.230726349135   -5494.230726349135   25193.320320077459  -31794.627802844316    1107.076756417724 
  602000   -5518.715042863965   -5518.715042863965   25166.139791234127  -31793.033308924016    1108.178474825924 
  603000   -5497.131559643003   -5497.131559643003   25211.901728910827  -31793.600170257730    1084.566881703904 
  604000   -5516.461073164581   -5516.461073164581   25187.926282204666  -31788.255647869599    1083.868292500348 
  605000   -5489.162714023096   -5489.162714023096   25192.389345454092  -31786.109816173750    1104.557756696564 
  606000   -5527.025338511510   -5527.025338511510   25150.498655025909  -31792.023216645110    1114.499223107688 
  607000   -5555.320730938223   -5555.320730938223   25112.327752380075  -31788.553035316130    1120.904551997829 
  608000   -5528.914984487881   -5528.914984487881   25190.794237810456  -31794.500390657122    1074.791168358780 
  609000   -5513.464189431284   -5513.464189431284   25178.033366461190  -31791.762736227509    1100.265180335039 
  610000   -5566.186424655923   -5566.186424655923   25151.950132052811  -31794.276036528936    1076.139479820201 
  611000   -5490.714724218284   -5490.714724218284   25258.731561921988  -31792.279470317633    1042.833184177367 
  612000   -5595.212802265894   -5595.212802265894   25067.803177869977  -31795.183513662832    1132.167533526956 
  613000   -5574.026331037079   -5574.026331037079   25108.164642473057  -31797.252555186584    1115.061581676449 
  614000   -5433.424276813781   -5433.424276813781   25252.777841527881  -31790.525938684626    1104.323820342960 
  615000   -5604.411420585177   -5604.411420585177   25061.379403066723  -31794.842276321411    1129.051452669514 
  616000   -5551.111710228186   -5551.111710228186   25111.405369589505  -31792.269857871703    1129.752778054016 
  617000   -5522.691828968465   -5522.691828968465   25190.801426648533  -31794.060879931058    1080.567624314057 
  618000   -5513.845351478321   -5513.845351478321   25148.932563956303  -31792.604726597812    1129.826811163188 
  619000   -5488.710157688005   -5488.710157688005   25221.386678681447  -31791.832975689129    1081.736139319675 
  620000   -5475.790509554925   -5475.790509554925   25229.232921338596  -31790.192712036351    1085.169281142828 
  621000   -5512.230566161576   -5512.230566161576   25173.957508187250  -31792.876873486231    1106.688799137406 
  622000   -5557.535022047734   -5557.535022047734   25064.568696460068  -31795.670278127702    1173.566559619901 
  623000   -5538.102559750540   -5538.102559750540   25144.081620009365  -31794.571807392767    1112.387627632865 
  624000   -5515.532316780609   -5515.532316780609   25251.489862476334  -31792.879947573361    1025.857768316418 
  625000   -5498.544781610242   -5498.544781610242   25186.709789563029  -31791.161250943434    1105.906679770160 
  626000   -5542.133485028244   -5542.133485028244   25184.093765068115  -31794.011819450869    1067.784569354513 
  627000   -5557.279388305571   -5557.279388305571   25098.575873754158  -31793.067865994228    1137.212603934503 
  628000   -5499.756719734043   -5499.756719734043   25237.377587295632  -31791.361728647542    1054.227421617868 
  629000   -5513.701117219858   -5513.701117219858   25190.892099584107  -31788.844253542706    1084.251036738737 
  630000   -5493.753555506213   -5493.753555506213   25170.006812913569  -31787.457872238152    1123.697503818373 
  631000   -5521.384110823299   -5521.384110823299   25153.172479086377  -31790.447185270288    1115.890595360612 
  632000   -5535.191286616147   -5535.191286616147   25215.015513262697  -31791.641895560275    1041.435095681429 
  633000   -5564.058152448066   -5564.058152448066   25106.521325731490  -31794.468513518521    1123.889035338969 
  634000   -5486.968877663803   -5486.968877663803   25231.007472200654  -31794.464330365743    1076.487980501287 
  635000   -5524.349573018564   -5524.349573018564   25116.238889254404  -31791.399204124722    1150.810741851757 
  636000   -5620.724918719996   -5620.724918719996   24976.271866823023  -31790.957349503708    1193.960563960689 
  637000   -5585.596144361654   -5585.596144361654   25090.984355710276  -31791.408630705708    1114.828130633783 
  638000   -5536.701593659378   -5536.701593659378   25127.078402964322  -31790.146006835123    1126.366010211425 
  639000   -5516.539917244801   -5516.539917244801   25187.065534726855  -31793.559432493297    1089.953980521646 
  640000   -5537.947222436997   -5537.947222436997   25186.559435422841  -31788.958166877390    1064.451509017552 
  641000   -5529.372782178849   -5529.372782178849   25144.784711711844  -31794.338465416291    1120.180971525600 
  642000   -5527.698469131039   -5527.698469131039   25126.255391778916  -31795.052384175684    1141.098523265731 
  643000   -5472.310934949572   -5472.310934949572   25255.333624780957  -31790.762427324120    1063.117867593594 
  644000   -5577.257069960408   -5577.257069960408   25068.628838200151  -31794.417859480232    1148.531951319674 
  645000   -5496.279954963986   -5496.279954963986   25179.997401926688  -31790.311193901456    1114.033837010785 
  646000   -5478.369852555108   -5478.369852555108   25176.196543568698  -31790.565616133888    1135.999220010083 
  647000   -5520.767709731197   -5520.767709731197   25218.903025400308  -31790.356062103096    1050.685326971594 
  648000   -5502.781656157556   -5502.781656157556   25206.010387799215  -31790.438701783703    1081.646657826930 
  649000   -5447.781570967152   -5447.781570967152   25334.668421355556  -31786.495406794722    1004.045414472016 
  650000   -5491.338648346551   -5491.338648346551   25216.183512146574  -31791.489970310329    1083.967809817206 
  651000   -5489.012183677820   -5489.012183677820   25238.366215995789  -31789.300692624151    1061.922292950538 
  652000   -5560.869326957429   -5560.869326957429   25137.873307195900  -31789.312147916127    1090.569513762804 
  653000   -5512.863434787210   -5512.863434787210   25140.421041210262  -31793.501450310159    1140.216974312692 
  654000   -5526.929809050082   -5526.929809050082   25195.118129999057  -31787.361148272466    1065.313209223326 
[...]
 4838000   -5539.608705459425   -5539.608705459425   24981.165232143067  -31574.846440941154    1054.072503338665 
 4839000   -5470.202668187088   -5470.202668187088   25024.519345745051  -31567.315257364269    1072.593243432132 
 4840000   -5501.684760153152   -5501.684760153152   25004.316938787721  -31573.985647200065    1067.983948259191 
 4841000   -5534.613546798722   -5534.613546798722   24981.494805359631  -31571.338265420873    1055.229913262524 
 4842000   -5540.189454523766   -5540.189454523766   24902.688166575321  -31570.599802217985    1127.722181118897 
 4843000   -5492.510794237805   -5492.510794237805   25013.426063623891  -31566.753746351478    1060.816888489780 
 4844000   -5466.082478708639   -5466.082478708639   25004.144707419495  -31570.763454781634    1100.536268653498 
 4845000   -5516.437515152171   -5516.437515152171   24985.283345737826  -31573.847122305378    1072.126261415382 
 4846000   -5493.272155554023   -5493.272155554023   25027.591267989228  -31565.422855529647    1044.559431986397 
 4847000   -5531.383059267544   -5531.383059267544   24879.154847953698  -31571.778424747048    1161.240517525804 
 4848000   -5592.843949849903   -5592.843949849903   24818.734457451501  -31568.433401516479    1156.854994215071 
 4849000   -5521.196441019318   -5521.196441019318   24978.959700404717  -31570.877141238001    1070.720999813965 
 4850000   -5434.393198073729   -5434.393198073729   25004.402665662277  -31568.245523087204    1129.449659351196 
 4851000   -5515.503011869379   -5515.503011869379   24982.916809861534  -31571.704710948361    1073.284889217442 
 4852000   -5476.192587262976   -5476.192587262976   25096.861008458214  -31573.120798586900    1000.067202865711 
 4853000   -5520.053029099170   -5520.053029099170   24937.004027845273  -31574.128169727457    1117.071112783016 
 4854000   -5520.355830407807   -5520.355830407807   24950.048478961486  -31574.979719542065    1104.575410172774 
 4855000   -5467.442674328347   -5467.442674328347   25020.010552182794  -31568.263764098967    1080.810537587822 
 4856000   -5531.225570884792   -5531.225570884792   24934.505403068804  -31570.586175783439    1104.855201829845 
 4857000   -5550.466338286158   -5550.466338286158   24879.309478155676  -31571.700192080792    1141.924375638958 
 4858000   -5539.119475843218   -5539.119475843218   24890.533568287523  -31569.751574691043    1140.098530560301 
 4859000   -5571.959761878992   -5571.959761878992   24895.773719616023  -31576.621655349682    1108.888173854668 
 4860000   -5531.860966745760   -5531.860966745760   25001.269035784357  -31569.697754256969    1036.567751726850 
 4861000   -5464.267213452331   -5464.267213452331   24964.218788325179  -31567.500003505633    1139.014001728121 
 4862000   -5470.580874441428   -5470.580874441428   25052.330124249434  -31572.094828245150    1049.183829554283 
 4863000   -5530.255718113178   -5530.255718113178   24965.434220246974  -31570.970267957986    1075.280329597832 
 4864000   -5503.577612830075   -5503.577612830075   24964.736187910727  -31571.262459494268    1102.948658753469 
 4865000   -5551.753845422336   -5551.753845422336   24874.694103759874  -31573.354596061941    1146.906646879729 
 4866000   -5533.779576004476   -5533.779576004476   24929.809267559045  -31571.637008570884    1108.048165007364 
 4867000   -5514.219394940905   -5514.219394940905   24934.115612535061  -31568.509116573990    1120.174109098024 
 4868000   -5486.756785312573   -5486.756785312573   25013.397555132586  -31572.125082370483    1071.970741925325 
 4869000   -5540.411866631694   -5540.411866631694   24997.295373065408  -31571.283316812111    1033.576077115010 
 4870000   -5490.513701912165   -5490.513701912165   25060.774454542294  -31569.189062896043    1017.900906441589 
 4871000   -5548.850638877477   -5548.850638877477   24903.751436185241  -31569.736233751311    1117.134158688593 
 4872000   -5536.015654021325   -5536.015654021325   24970.635096843194  -31572.121124357993    1065.470373493475 
 4873000   -5513.759915466191   -5513.759915466191   24945.358622860316  -31570.098016497221    1110.979478170715 
 4874000   -5574.918602085396   -5574.918602085396   24848.313587005388  -31574.963438073944    1151.731248983158 
 4875000   -5507.204216820810   -5507.204216820810   24969.980855016242  -31575.066459311518    1097.881387474466 
 4876000   -5568.876314735229   -5568.876314735229   24849.705607158077  -31570.446748181137    1151.864826287825 
 4877000   -5466.338363912597   -5466.338363912597   25049.168019172837  -31570.021068114125    1054.514685028691 
 4878000   -5522.574426073887   -5522.574426073887   24939.603747634297  -31569.971756757808    1107.793583049621 
 4879000   -5534.400097832076   -5534.400097832076   24906.700045393343  -31573.940767733882    1132.840624508465 
 4880000   -5502.353055165633   -5502.353055165633   25008.126349875922  -31572.762928665368    1062.283523623816 
 4881000   -5558.282299204770   -5558.282299204770   24889.609780976567  -31573.213652232971    1125.321572051635 
 4882000   -5479.346925958645   -5479.346925958645   24981.338098572189  -31570.407363219845    1109.722338689014 
 4883000   -5539.196809925837   -5539.196809925837   24931.952983395760  -31571.682305031012    1100.532511709414 
 4884000   -5490.765588143619   -5490.765588143619   25019.649444013277  -31573.426419850857    1063.011387693957 
 4885000   -5515.569044050750   -5515.569044050750   25028.602487532029  -31568.785260006818    1024.613728424041 
 4886000   -5496.914123578863   -5496.914123578863   25024.754106387394  -31573.969329042382    1052.301099076124 
 4887000   -5455.345608502081   -5455.345608502081   25078.392952058850  -31571.323740687571    1037.585180126646 
 4888000   -5572.376256277457   -5572.376256277457   24905.141533134232  -31572.475010203852    1094.957220792162 
 4889000   -5563.727114005360   -5563.727114005360   24898.638544047615  -31575.428406353465    1113.062748300489 
 4890000   -5500.775126343822   -5500.775126343822   25033.626253605449  -31571.068704371366    1036.667324422089 
 4891000   -5540.107779483609   -5540.107779483609   25011.884951464916  -31570.151624073398    1018.158893124878 
 4892000   -5542.492674283887   -5542.492674283887   24899.286007065537  -31571.452541525578    1129.673860176153 
 4893000   -5593.776798139505   -5593.776798139505   24905.482872072069  -31576.405183539369    1077.145513327796 
 4894000   -5538.115160574358   -5538.115160574358   24914.523762153545  -31571.368340086199    1118.729417358299 
 4895000   -5445.862057211212   -5445.862057211212   25120.598501931861  -31569.272705208590    1002.812146065516 
 4896000   -5534.932346551799   -5534.932346551799   24914.498230870679  -31569.603634203908    1120.173056781429 
 4897000   -5502.113626145776   -5502.113626145776   25045.473321516616  -31572.684456921626    1025.097509259240 
 4898000   -5488.336472733128   -5488.336472733128   24992.041012976984  -31574.066835380923    1093.689349670811 
 4899000   -5546.406840094638   -5546.406840094638   24906.621175936816  -31568.192377776206    1115.164361744750 
 4900000   -5463.239922762335   -5463.239922762335   25044.746842248554  -31571.759901563899    1063.773136553006 
 4901000   -5484.297296477755   -5484.297296477755   24983.338312446234  -31572.939451657923    1105.303842733933 
 4902000   -5492.065330553411   -5492.065330553411   25016.554894301302  -31567.677641991992    1059.057417137282 
 4903000   -5499.495894039279   -5499.495894039279   24962.714033479286  -31572.462843624344    1110.252916105775 
 4904000   -5594.700126368356   -5594.700126368356   24927.840549802324  -31575.151426054195    1052.610749883509 
 4905000   -5536.908200115493   -5536.908200115493   24995.131906168142  -31572.443913078208    1040.403806794572 
 4906000   -5582.010859133447   -5582.010859133447   24938.002421311812  -31565.277519744319    1045.264239299062 
 4907000   -5514.316547526050   -5514.316547526050   24944.624138540865  -31567.098139287587    1108.157453220676 
 4908000   -5546.121533695012   -5546.121533695012   24995.521150857079  -31571.764523002050    1030.121838449959 
 4909000   -5556.066166189496   -5556.066166189496   24935.859446716899  -31572.111053977962    1080.185441071565 
 4910000   -5544.935704822408   -5544.935704822408   24888.255412103928  -31570.449670086440    1137.258553160104 
 4911000   -5550.470352668573   -5550.470352668573   24916.529643313483  -31571.743164582364    1104.743168600315 
 4912000   -5522.183574427505   -5522.183574427505   24931.930365404780  -31572.040647551017    1117.926707718729 
 4913000   -5502.185739171677   -5502.185739171677   24945.588796048509  -31569.184381112078    1121.409845891893 
 4914000   -5503.697582767269   -5503.697582767269   25026.201203726225  -31569.938196830855    1040.039410337360 
 4915000   -5488.652813576344   -5488.652813576344   24997.569134278652  -31569.299623703257    1083.077675848261 
 4916000   -5512.634271110892   -5512.634271110892   24999.907749058246  -31570.389088008804    1057.847067839667 
 4917000   -5525.264486944932   -5525.264486944932   24934.913102461829  -31570.434653335407    1110.257063928642 
 4918000   -5513.959351370137   -5513.959351370137   24931.040413973838  -31570.046300041729    1125.046534697758 
 4919000   -5472.249479062135   -5472.249479062135   25028.022428693235  -31571.120013497610    1070.848105742239 
 4920000   -5543.524461115783   -5543.524461115783   24952.582290241022  -31572.370059838231    1076.263308481426 
 4921000   -5492.966351860785   -5492.966351860785   25041.167612798912  -31565.713381114845    1031.579416455146 
 4922000   -5532.497863214983   -5532.497863214983   24970.087962754929  -31569.723773697395    1067.137947727477 
 4923000   -5508.229042804167   -5508.229042804167   24913.748392219542  -31570.014928583681    1148.037493559975 
 4924000   -5526.892422979079   -5526.892422979079   24884.670660519412  -31571.578562185725    1160.015478687231 
 4925000   -5531.741474868038   -5531.741474868038   24922.085163187661  -31572.118630058911    1118.291992003210 
 4926000   -5469.024525513494   -5469.024525513494   25050.027913399557  -31571.304262268604    1052.251823355553 
 4927000   -5436.341558219126   -5436.341558219126   25142.099395623700  -31565.888260003634     987.447306160806 
 4928000   -5488.088908497481   -5488.088908497481   25007.205429311598  -31575.025103584074    1079.730765774997 
 4929000   -5563.091742566281   -5563.091742566281   24906.558673698662  -31570.692024450935    1101.041608185991 
 4930000   -5551.950482458175   -5551.950482458175   24942.586563618555  -31567.216671909649    1072.679625832920 
 4931000   -5519.061426629170   -5519.061426629170   24976.043492205601  -31568.090730450989    1072.985811616216 
 4932000   -5522.145374751086   -5522.145374751086   24981.812490070308  -31572.771641858522    1068.813777037125 
 4933000   -5510.082316072981   -5510.082316072981   24964.449171729204  -31562.604596998899    1088.073109196716 
 4934000   -5539.937133023468   -5539.937133023468   24923.050370439036  -31570.266664133294    1107.279160670789 
 4935000   -5522.965568966301   -5522.965568966301   24946.052990892185  -31572.165295935800    1103.146736077313 
 4936000   -5506.114060166914   -5506.114060166914   25039.601673210011  -31569.526195057009    1023.810461680080 
 4937000   -5509.642410606753   -5509.642410606753   24972.611765759539  -31568.963513154191    1086.709336787898 
 4938000   -5530.080219811891   -5530.080219811891   24991.498926616201  -31571.513825611713    1049.934679183624 
 4939000   -5540.398877104806   -5540.398877104806   24966.804974143328  -31573.064518326773    1065.860667078635 
 4940000   -5444.756296495168   -5444.756296495168   25050.524172844438  -31567.719486231548    1072.439016891941 
 4941000   -5533.205851924151   -5533.205851924151   24980.100220092943  -31571.864259617807    1058.558187600710 
 4942000   -5470.319570945285   -5470.319570945285   25057.226795957464  -31572.854893101081    1045.308526198332 
 4943000   -5553.779257672471   -5553.779257672471   24913.598739053145  -31570.102219203462    1102.724222477845 
 4944000   -5486.808357044858   -5486.808357044858   25055.949999638542  -31569.953274141029    1027.194917457628 
 4945000   -5446.048692691675   -5446.048692691675   25066.702866069310  -31567.196932733237    1054.445373972253 
 4946000   -5543.324788239857   -5543.324788239857   24942.485778271581  -31570.374122597888    1084.563556086455 
 4947000   -5560.467796271445   -5560.467796271445   24989.757941595693  -31574.118401013773    1023.892663146635 
 4948000   -5555.449703709557   -5555.449703709557   24867.454077139846  -31570.392781348826    1147.489000499423 
 4949000   -5563.558158759213   -5563.558158759213   24910.066313426451  -31567.056432847276    1093.431960661612 
 4950000   -5502.429424957940   -5502.429424957940   24993.132424669348  -31570.260413954013    1074.698564326726 
 4951000   -5521.477153729218   -5521.477153729218   24935.039228254213  -31572.647731235738    1116.131349252303 
 4952000   -5542.951812037540   -5542.951812037540   24914.962176687706  -31572.135096150640    1114.221107425396 
 4953000   -5502.133893010297   -5502.133893010297   24964.053792807877  -31572.487992898728    1106.300307080551 
 4954000   -5541.601097942934   -5541.601097942934   24914.167090030427  -31573.398291633424    1117.630103660067 
 4955000   -5563.842567574626   -5563.842567574626   24912.078318561486  -31571.349703493368    1095.428817357253 
 4956000   -5594.365704680917   -5594.365704680917   24876.352307981353  -31570.883399773040    1100.165387110768 
 4957000   -5488.410598320988   -5488.410598320988   25032.469661113562  -31573.568175252327    1052.687915817775 
 4958000   -5502.209991369764   -5502.209991369764   25001.071871809665  -31571.970021263165    1068.688158083738 
 4959000   -5518.648386858029   -5518.648386858029   24976.594881077712  -31570.330227044364    1075.086959108619 
 4960000   -5487.072951329163   -5487.072951329163   25035.622428667983  -31569.558791107625    1046.863411110475 
 4961000   -5529.069668639891   -5529.069668639891   24932.681214520286  -31573.549317216210    1111.798434056035 
 4962000   -5500.811143074687   -5500.811143074687   24974.322175026511  -31571.719501296007    1096.586183194811 
 4963000   -5482.512354908402   -5482.512354908402   24976.790015496124  -31571.334997716564    1112.032627312034 
 4964000   -5537.317326101420   -5537.317326101420   24990.709431725754  -31570.097690823091    1042.070932995916 
 4965000   -5570.840467648020   -5570.840467648020   24899.039960044920  -31574.173912110833    1104.293484417897 
 4966000   -5569.568115655660   -5569.568115655660   24940.903302697967  -31573.542580730333    1063.071162376706 
 4967000   -5552.470015567294   -5552.470015567294   24982.051757452700  -31567.554842348833    1033.033069328834 
 4968000   -5543.339337558009   -5543.339337558009   25058.716143347046  -31569.779655102611     967.724174197553 
 4969000   -5579.924172591640   -5579.924172591640   24905.301796068576  -31568.951800616869    1083.725831956653 
 4970000   -5498.337367063450   -5498.337367063450   25010.488233671364  -31571.602892785821    1062.777292051010 
 4971000   -5520.551912576331   -5520.551912576331   24931.891730026382  -31568.541006903419    1116.097364300706 
 4972000   -5525.523202362379   -5525.523202362379   24963.381082074804  -31573.192806687741    1084.288522250556 
 4973000   -5493.155895041138   -5493.155895041138   25038.413007245395  -31574.336026145429    1042.767123858896 
 4974000   -5499.894298325904   -5499.894298325904   25052.622891832507  -31574.482505104657    1021.965314946245 
 4975000   -5482.642715403381   -5482.642715403381   25063.352655640490  -31572.042108509515    1026.046737465647 
 4976000   -5517.071846027677   -5517.071846027677   24945.853122457462  -31571.768794201285    1108.843825716148 
 4977000   -5530.089709212385   -5530.089709212385   24916.911683165559  -31569.250563869537    1122.249171491592 
 4978000   -5515.716031858443   -5515.716031858443   24987.571357518354  -31573.637402420485    1070.350013043694 
 4979000   -5613.596360871958   -5613.596360871958   24850.698140405133  -31572.192190885136    1107.897689608044 
 4980000   -5529.287054709912   -5529.287054709912   24854.223215870130  -31576.027062248235    1192.516791668191 
 4981000   -5467.552902523290   -5467.552902523290   25043.880057684277  -31570.117561043571    1058.684600836007 
 4982000   -5478.287916224275   -5478.287916224275   24935.209557483766  -31567.675970807257    1154.178497099216 
 4983000   -5523.721778263909   -5523.721778263909   24915.848279573402  -31571.249005774484    1131.678947937177 
 4984000   -5501.669580784732   -5501.669580784732   24936.827893891270  -31574.488082003936    1135.990607327930 
 4985000   -5507.297057066000   -5507.297057066000   24943.477644429066  -31567.736298416803    1116.961596921741 
 4986000   -5537.441069911176   -5537.441069911176   24989.935190430580  -31575.630617125502    1048.254356783749 
 4987000   -5483.225809059804   -5483.225809059804   25014.325076541110  -31567.834780941394    1070.283895340480 
 4988000   -5549.690808178904   -5549.690808178904   24865.824277542753  -31572.130978350066    1156.615892628412 
 4989000   -5512.978317281009   -5512.978317281009   24920.331924541682  -31571.433407075812    1138.123165253123 
 4990000   -5497.948470413608   -5497.948470413608   24995.876519249799  -31572.709118593339    1078.884128929932 
 4991000   -5538.537048740705   -5538.537048740705   24928.642181741729  -31575.624450403320    1108.445219920887 
 4992000   -5461.812051521032   -5461.812051521032   25008.916445300310  -31569.996133906785    1099.267637085437 
 4993000   -5457.544759362092   -5457.544759362092   25067.160633614523  -31566.649365564208    1041.943972587594 
 4994000   -5485.540819061225   -5485.540819061225   24991.231337855854  -31573.044484770653    1096.272327853575 
 4995000   -5580.339562170160   -5580.339562170160   24882.880663972501  -31571.486213621611    1108.265987478951 
 4996000   -5568.789595243150   -5568.789595243150   24881.600267985756  -31571.408785319640    1121.018922090736 
 4997000   -5463.347785282229   -5463.347785282229   25060.357185686302  -31568.650633472538    1044.945662504004 
 4998000   -5531.173797267496   -5531.173797267496   24889.064928416094  -31572.927941772010    1152.689216088421 
 4999000   -5511.423090820081   -5511.423090820081   25006.598352705889  -31571.191131233390    1053.169687707424 
 5000000   -5475.913815440450   -5475.913815440450   24964.097559335143  -31573.905767087315    1133.894392311723 
Loop time of 29.941 on 8 procs for 5001 steps with 1503 atoms

Performance: 14.431 ns/day, 1.663 hours/ns, 167.029 timesteps/s
98.9% CPU use with 8 MPI tasks x 1 OpenMP threads

MPI task timing breakdown:
Section |  min time  |  avg time  |  max time  |%varavg| %total
---------------------------------------------------------------
Pair    | 0          | 0          | 0          |   0.0 |  0.00
Bond    | 0          | 0          | 0          |   0.0 |  0.00
Kspace  | 0          | 0          | 0          |   0.0 |  0.00
Neigh   | 0          | 0          | 0          |   0.0 |  0.00
Comm    | 0          | 0          | 0          |   0.0 |  0.00
Output  | 0          | 0          | 0          |   0.0 |  0.00
Modify  | 0          | 0          | 0          |   0.0 |  0.00
Other   |            | 29.94      |            |       |100.00

Nlocal:    187.875 ave 195 max 177 min
Histogram: 1 0 0 1 1 1 0 1 2 1
Nghost:    4568.12 ave 4605 max 4535 min
Histogram: 1 1 0 0 2 2 1 0 0 1
Neighs:    66984.9 ave 70644 max 62199 min
Histogram: 1 1 0 0 1 1 1 0 2 1

Total # of neighbors = 535879
Ave neighs/atom = 356.54
Ave special neighs/atom = 2
Neighbor list builds = 0
Dangerous builds = 0
Total wall time: 0:01:30
