LAMMPS (3 Mar 2020)
  using 1 OpenMP thread(s) per MPI task
Reading data file ...
  orthogonal box = (0 0 0) to (24 24 24)
  2 by 2 by 2 MPI processor grid
  reading atoms ...
  1503 atoms
  scanning bonds ...
  2 = max bonds/atom
  scanning angles ...
  1 = max angles/atom
  reading bonds ...
  1002 bonds
  reading angles ...
  501 angles
Finding 1-2 1-3 1-4 neighbors ...
  special bond factors lj:   0          0          0         
  special bond factors coul: 0          0          0         
  2 = max # of 1-2 neighbors
  1 = max # of 1-3 neighbors
  1 = max # of 1-4 neighbors
  2 = max # of special neighbors
  special bonds CPU = 0.00106965 secs
  read_data CPU = 0.00733634 secs
Setting atom values ...
  1 settings made for charge
Setting atom values ...
  2 settings made for charge
Finding SHAKE clusters ...
  0 = # of size 2 clusters
  0 = # of size 3 clusters
  0 = # of size 4 clusters
  501 = # of frozen angles
  find clusters CPU = 0.000690039 secs
PPPM initialization ...
  using 12-bit tables for long-range coulomb (src/kspace.cpp:332)
  G vector (1/distance) = 0.315108
  grid = 24 24 24
  stencil order = 5
  estimated absolute RMS force accuracy = 0.00171352
  estimated relative force accuracy = 5.16021e-06
  using double precision MKL FFT
  3d grid and FFT values/proc = 6859 1728
Neighbor list info ...
  update every 1 steps, delay 10 steps, check yes
  max neighbors/atom: 2000, page size: 100000
  master list distance cutoff = 12
  ghost atom cutoff = 12
  binsize = 6, bins = 4 4 4
  3 neighbor lists, perpetual/occasional/extra = 3 0 0
  (1) pair lj/cut/coul/long, perpetual, skip from (3)
      attributes: half, newton on
      pair build: skip
      stencil: none
      bin: none
  (2) pair lj/cut/coul/long/soft, perpetual, skip from (3)
      attributes: half, newton on
      pair build: skip
      stencil: none
      bin: none
  (3) neighbor class addition, perpetual
      attributes: half, newton on
      pair build: half/bin/newton
      stencil: half/bin/3d/newton
      bin: standard
Per MPI rank memory allocation (min/avg/max) = 9.736 | 9.739 | 9.741 Mbytes
Step TotEng PotEng E_coul E_long E_vdwl 
       0   -5584.114901580517   -5584.114901580517   25155.551206958164  -31840.011152375184    1100.345043836504 
    1000   -5505.663147841959   -5505.663147841959   25278.084806712301  -31836.819705618167    1053.071751063908 
    2000   -5581.821012688459   -5581.821012688459   25129.977569064984  -31839.241502711855    1127.442920958414 
    3000   -5512.310729760327   -5512.310729760327   25269.494783491842  -31834.862620656175    1053.057107404008 
    4000   -5492.638804578808   -5492.638804578808   25278.215498961952  -31836.215239469737    1065.360935928981 
    5000   -5473.828077090529   -5473.828077090529   25306.424548545045  -31832.684272963295    1052.431647327724 
    6000   -5532.851688842900   -5532.851688842900   25131.580022173897  -31834.003524182288    1169.571813165494 
    7000   -5497.942805453393   -5497.942805453393   25256.624848390202  -31837.182851534628    1082.615197691032 
    8000   -5534.521415373412   -5534.521415373412   25229.443914824624  -31838.847763640984    1074.882433442949 
    9000   -5490.744209578526   -5490.744209578526   25288.467917196744  -31836.430041447606    1057.217914672340 
   10000   -5529.386501519231   -5529.386501519231   25171.749107910531  -31837.132904109345    1135.997294679583 
   11000   -5552.469403029208   -5552.469403029208   25192.735540407441  -31833.956191711852    1088.751248275199 
   12000   -5591.199118365235   -5591.199118365235   25146.579743532144  -31838.191317104145    1100.412455206766 
   13000   -5565.491298098543   -5565.491298098543   25176.972357966959  -31835.748077640648    1093.284421575145 
   14000   -5536.788729671502   -5536.788729671502   25191.732453329700  -31840.131039782838    1111.609856781637 
   15000   -5496.559582588783   -5496.559582588783   25301.012552434659  -31836.886814718262    1039.314679694824 
   16000   -5526.532199972105   -5526.532199972105   25223.727948999593  -31837.330811449669    1087.070662477970 
   17000   -5567.505893299622   -5567.505893299622   25177.915745042283  -31835.882069568423    1090.460431226520 
   18000   -5540.147231678420   -5540.147231678420   25206.549572703272  -31836.894385355321    1090.197580973628 
   19000   -5538.394287107116   -5538.394287107116   25277.071160024301  -31837.998348938843    1022.532901807429 
   20000   -5595.022215623081   -5595.022215623081   25125.485703841707  -31839.935528769762    1119.427609304971 
   21000   -5523.199683282150   -5523.199683282150   25199.627377450681  -31839.186476692314    1116.359415959485 
   22000   -5525.618525397869   -5525.618525397869   25251.920255630834  -31836.654607451688    1059.115826422989 
   23000   -5527.520926089423   -5527.520926089423   25254.269861245681  -31841.541495829319    1059.750708494214 
   24000   -5552.889786044365   -5552.889786044365   25222.096296882097  -31838.599764580784    1063.613681654321 
   25000   -5509.988921342298   -5509.988921342298   25217.377225528850  -31837.457398207200    1110.091251336055 
   26000   -5552.164602645371   -5552.164602645371   25173.702188244537  -31835.766111910361    1109.899321020449 
   27000   -5461.992996401328   -5461.992996401328   25315.621449237129  -31836.095508924875    1058.481063286421 
   28000   -5578.145253445884   -5578.145253445884   25135.656007156969  -31837.668337579576    1123.867076976726 
   29000   -5572.549382900452   -5572.549382900452   25198.127813783412  -31838.092381514947    1067.415184831083 
   30000   -5574.052848702380   -5574.052848702380   25100.753905807542  -31833.814501213066    1159.007746703141 
   31000   -5495.763682096884   -5495.763682096884   25295.163245568023  -31838.371413271281    1047.444485606373 
   32000   -5518.913141787558   -5518.913141787558   25164.397657987844  -31838.773811080893    1155.463011305498 
   33000   -5530.452566074589   -5530.452566074589   25283.428291156953  -31841.823321911790    1027.942464680249 
   34000   -5508.362238756643   -5508.362238756643   25229.709520368473  -31837.094694084924    1099.022934959807 
   35000   -5540.474506277791   -5540.474506277791   25188.921536221969  -31837.973703578009    1108.577661078248 
   36000   -5542.137854696357   -5542.137854696357   25133.738580367182  -31841.516120471690    1165.639685408149 
   37000   -5506.309514534256   -5506.309514534256   25249.900553060579  -31839.902929327862    1083.692861733023 
   38000   -5574.102340477944   -5574.102340477944   25251.043395921432  -31841.029900434405    1015.884164035026 
   39000   -5499.275884166316   -5499.275884166316   25269.670036544128  -31834.622764470390    1065.676843759950 
   40000   -5540.462226201125   -5540.462226201125   25214.416540595725  -31836.817768754721    1081.939001957876 
   41000   -5474.183922370543   -5474.183922370543   25173.754367618210  -31838.353732722648    1190.415442733896 
   42000   -5508.928239551624   -5508.928239551624   25176.932977069948  -31838.686688233396    1152.825471611821 
   43000   -5566.295799128697   -5566.295799128697   25128.574867800529  -31837.227903137227    1142.357236207999 
   44000   -5504.317970101802   -5504.317970101802   25221.224899696525  -31836.148387446439    1110.605517648111 
   45000   -5545.941441727959   -5545.941441727959   25267.030369638313  -31840.873443233952    1027.901631867685 
   46000   -5495.817914584386   -5495.817914584386   25196.855455403900  -31838.316913436098    1145.643543447812 
   47000   -5566.185377874062   -5566.185377874062   25183.670158731475  -31839.203262291820    1089.347725686283 
   48000   -5538.180572827303   -5538.180572827303   25203.185620321055  -31839.124825648454    1097.758632500095 
   49000   -5610.149835189448   -5610.149835189448   25164.641374420389  -31842.012078151012    1067.220868541180 
   50000   -5535.483833121518   -5535.483833121518   25283.956952624776  -31834.871190729482    1015.430404983182 
   51000   -5568.491684833862   -5568.491684833862   25201.183365562403  -31835.228324745247    1065.553274348981 
   52000   -5548.628201337247   -5548.628201337247   25237.165510357030  -31838.727482320708    1052.933770626426 
   53000   -5591.490668057337   -5591.490668057337   25187.400889474309  -31839.277327097250    1060.385769565601 
   54000   -5492.208950951484   -5492.208950951484   25229.580418943591  -31842.277590217669    1120.488220322599 
   55000   -5522.111151769488   -5522.111151769488   25249.397231165691  -31838.048062972215    1066.539680037031 
   56000   -5558.661600438856   -5558.661600438856   25209.147727359556  -31839.729106382307    1071.919778583896 
   57000   -5551.178166010719   -5551.178166010719   25219.817071573925  -31837.335845831141    1066.340608246493 
   58000   -5553.003814416523   -5553.003814416523   25166.255334251575  -31835.562164062012    1116.303015393919 
   59000   -5545.740647638642   -5545.740647638642   25209.761575981829  -31839.881393825664    1084.379170205194 
   60000   -5528.814948142815   -5528.814948142815   25260.565543745764  -31833.386060265653    1044.005568377076 
   61000   -5509.114594613970   -5509.114594613970   25224.405432475040  -31834.690646868232    1101.170619779214 
   62000   -5505.419420262268   -5505.419420262268   25216.093934483273  -31837.358754348854    1115.845399603309 
   63000   -5517.384597806707   -5517.384597806707   25163.596088138565  -31832.450958431837    1151.470272486564 
   64000   -5534.650559108795   -5534.650559108795   25256.530580371349  -31836.396131091762    1045.214991611624 
   65000   -5558.812871424092   -5558.812871424092   25247.581869923073  -31839.008174366863    1032.613433019696 
   66000   -5512.861808272090   -5512.861808272090   25290.397472687324  -31837.818959114713    1034.559678155299 
   67000   -5468.880358074322   -5468.880358074322   25354.306507292247  -31833.537950433649    1010.351085067078 
   68000   -5580.533833259800   -5580.533833259800   25078.467168116993  -31835.008371966356    1176.007370589564 
   69000   -5524.234242416944   -5524.234242416944   25177.089211497681  -31837.343649551764    1136.020195637136 
   70000   -5513.876880094806   -5513.876880094806   25180.343376191733  -31840.508589648292    1146.288333361751 
   71000   -5536.695504278679   -5536.695504278679   25136.438537799779  -31832.385273256608    1159.251231178150 
   72000   -5538.114053375972   -5538.114053375972   25170.366037580738  -31838.827997443554    1130.347906486850 
   73000   -5460.867927077328   -5460.867927077328   25275.499377047508  -31834.384026969768    1098.016722844930 
   74000   -5454.325956923800   -5454.325956923800   25324.940015404853  -31834.089884244739    1054.823911916086 
   75000   -5503.990420871789   -5503.990420871789   25322.713508127119  -31835.383785786100    1008.679856787190 
   76000   -5571.857405855277   -5571.857405855277   25235.305090397786  -31837.904022145864    1030.741525892805 
   77000   -5506.903257893839   -5506.903257893839   25202.611374143209  -31832.278502654564    1122.763870617511 
   78000   -5575.611557514829   -5575.611557514829   25118.281699330801  -31839.317756922621    1145.424500076990 
   79000   -5516.963401014600   -5516.963401014600   25245.362069505725  -31833.374290585361    1071.048820065035 
   80000   -5522.819391337915   -5522.819391337915   25208.778996568326  -31836.002767524737    1104.404379618494 
   81000   -5504.685790335148   -5504.685790335148   25216.217235334880  -31833.058935279176    1112.155909609149 
   82000   -5534.702427513697   -5534.702427513697   25269.378497471720  -31837.222840055012    1033.141915069596 
   83000   -5560.600784328362   -5560.600784328362   25196.942459608857  -31838.410997653376    1080.867753716158 
   84000   -5576.223891767040   -5576.223891767040   25061.316951908160  -31838.436092942178    1200.895249266978 
   85000   -5465.507172638594   -5465.507172638594   25282.288211726493  -31836.004824400468    1088.209440035380 
   86000   -5555.239985480064   -5555.239985480064   25188.857664371491  -31834.509250804378    1090.411600952819 
   87000   -5494.064305240339   -5494.064305240339   25280.952753398051  -31839.776179882829    1064.759121244436 
   88000   -5538.521128852197   -5538.521128852197   25190.586637185828  -31837.395525865861    1108.287759827834 
   89000   -5444.128556024971   -5444.128556024971   25345.129739674616  -31835.056560719826    1045.798265020240 
   90000   -5522.836492680930   -5522.836492680930   25210.042719975903  -31834.741244814453    1101.862032157618 
   91000   -5517.355689311011   -5517.355689311011   25136.845195148751  -31835.290543363597    1181.089658903834 
   92000   -5523.177732878812   -5523.177732878812   25218.722541019721  -31835.136663234243    1093.236389335710 
   93000   -5526.678495321692   -5526.678495321692   25284.467948765676  -31834.819909603393    1023.673465516027 
   94000   -5537.141077250388   -5537.141077250388   25171.342658412155  -31837.762258926483    1129.278523263943 
   95000   -5529.003316759787   -5529.003316759787   25251.581620061734  -31835.674799013592    1055.089862192068 
   96000   -5547.780976539496   -5547.780976539496   25221.078463532685  -31837.414950416704    1068.555510344521 
   97000   -5502.210329087262   -5502.210329087262   25205.179260728852  -31837.691513213002    1130.301923396882 
   98000   -5515.951584039820   -5515.951584039820   25239.265121070617  -31836.271722308582    1081.055017198146 
   99000   -5540.384860299677   -5540.384860299677   25233.079859470250  -31841.890181607607    1068.425461837679 
  100000   -5535.207353049136   -5535.207353049136   25213.548090379692  -31837.512834982699    1088.757391553868 
  101000   -5581.389065271760   -5581.389065271760   25195.097389880459  -31834.176776145330    1057.690320993111 
  102000   -5534.444370069912   -5534.444370069912   25177.143308222276  -31838.188662287630    1126.600983995440 
  103000   -5507.119797136915   -5507.119797136915   25239.704782077144  -31833.787257855631    1086.962678641569 
  104000   -5455.054452297332   -5455.054452297332   25358.671026902652  -31835.129950019484    1021.404470819496 
  105000   -5469.363928879688   -5469.363928879688   25295.887087865616  -31837.933489419323    1072.682472674017 
  106000   -5530.651347792100   -5530.651347792100   25231.936690406856  -31838.049584444117    1075.461546245160 
  107000   -5568.551824837588   -5568.551824837588   25168.908655269406  -31838.587432601515    1101.126952494519 
  108000   -5520.348158405701   -5520.348158405701   25327.240534050958  -31838.791647744922     991.202955288266 
  109000   -5489.969634174646   -5489.969634174646   25258.802394731363  -31834.250044172491    1085.478015266479 
  110000   -5535.530943207603   -5535.530943207603   25184.156242302415  -31838.685894300303    1118.998708790286 
  111000   -5502.690987034741   -5502.690987034741   25283.262492361657  -31837.341366483321    1051.387887086922 
  112000   -5523.194213159204   -5523.194213159204   25224.752524041553  -31830.609575010949    1082.662837810196 
  113000   -5529.950747937870   -5529.950747937870   25198.602919286117  -31837.089118635107    1108.535451411122 
  114000   -5546.568587019592   -5546.568587019592   25146.940867517893  -31836.777524369962    1143.268069832471 
  115000   -5559.672500916349   -5559.672500916349   25208.397461735945  -31835.001256928590    1066.931294276291 
  116000   -5570.569179478367   -5570.569179478367   25202.687168188306  -31837.517328328930    1064.260980662259 
  117000   -5595.722332453686   -5595.722332453686   25081.669728631936  -31837.979787217009    1160.587726131385 
  118000   -5561.621266716837   -5561.621266716837   25139.132721995047  -31838.895779153165    1138.141790441281 
  119000   -5464.950274245650   -5464.950274245650   25332.591064621563  -31830.718963646355    1033.177624779144 
  120000   -5493.392976078529   -5493.392976078529   25261.834264876328  -31836.000432526223    1080.773191571363 
  121000   -5479.209778441858   -5479.209778441858   25277.306432157493  -31838.983862133246    1082.467651533891 
  122000   -5490.732492856649   -5490.732492856649   25267.448683590970  -31831.089311584099    1072.908135136483 
  123000   -5506.260798303305   -5506.260798303305   25230.656111548502  -31837.313740099893    1100.396830248087 
  124000   -5426.915819505673   -5426.915819505673   25350.175662271049  -31831.219433925653    1054.127952148933 
  125000   -5568.394546303494   -5568.394546303494   25174.106301664884  -31837.270298604173    1094.769450635792 
  126000   -5612.945369246310   -5612.945369246310   25016.035468708877  -31836.981998975960    1208.001161020767 
  127000   -5523.502051889838   -5523.502051889838   25199.248620369457  -31836.762292703526    1114.011620444231 
  128000   -5455.185206298855   -5455.185206298855   25319.444754713491  -31830.302558383934    1055.672597371587 
  129000   -5551.117055707393   -5551.117055707393   25210.301417037292  -31836.138488271688    1074.720015527002 
  130000   -5540.618576952700   -5540.618576952700   25179.780155031160  -31834.221813978373    1113.823081994510 
  131000   -5553.877036310158   -5553.877036310158   25195.006202439945  -31836.474432471950    1087.591193721844 
  132000   -5517.320342244428   -5517.320342244428   25249.838208641129  -31837.074313973910    1069.915763088351 
  133000   -5543.810517764181   -5543.810517764181   25189.868753371244  -31835.803418537398    1102.124147401967 
  134000   -5485.655709535538   -5485.655709535538   25333.578817851376  -31833.315543361561    1014.081015974643 
  135000   -5601.542695229797   -5601.542695229797   25109.864277737652  -31839.511476858141    1128.104503890690 
  136000   -5472.295351800720   -5472.295351800720   25314.316698307630  -31837.815808878582    1051.203758770231 
  137000   -5568.823961816484   -5568.823961816484   25170.405213838909  -31834.160548014312    1094.931372358916 
  138000   -5508.541073027318   -5508.541073027318   25225.125386443986  -31841.715317222908    1108.048857751607 
  139000   -5544.574581810037   -5544.574581810037   25215.003967219985  -31839.069929544017    1079.491380513994 
  140000   -5571.890345432486   -5571.890345432486   25112.278610963105  -31839.732707677736    1155.563751282146 
  141000   -5553.846171518177   -5553.846171518177   25118.724910377208  -31838.401121091792    1165.830039196409 
  142000   -5555.193112521680   -5555.193112521680   25117.832119236104  -31839.596520129366    1166.571288371583 
  143000   -5530.206250361942   -5530.206250361942   25162.895018252308  -31834.138969288946    1141.037700674700 
  144000   -5531.237139907309   -5531.237139907309   25149.156700041764  -31839.157772067756    1158.763932118682 
  145000   -5529.402666119830   -5529.402666119830   25240.307565744886  -31831.495995721376    1061.785763856658 
  146000   -5490.103825460334   -5490.103825460334   25257.967795187862  -31836.151958214141    1088.080337565945 
  147000   -5481.107822632079   -5481.107822632079   25232.235725824012  -31836.886590401056    1123.543041944966 
  148000   -5543.145264051207   -5543.145264051207   25276.769768660270  -31838.032444207311    1018.117411495834 
  149000   -5526.261143518848   -5526.261143518848   25145.485442315807  -31836.749868431914    1165.003282597261 
  150000   -5526.062911484794   -5526.062911484794   25175.274249624927  -31836.245483048700    1134.908321938984 
  151000   -5503.405820665008   -5503.405820665008   25255.268823094735  -31838.401298109060    1079.726654349314 
  152000   -5508.496151317016   -5508.496151317016   25313.341239330286  -31834.012426651116    1012.175036003817 
  153000   -5491.859949873033   -5491.859949873033   25289.962009597017  -31837.615392157546    1055.793432687495 
  154000   -5532.478323346924   -5532.478323346924   25160.653954150344  -31837.892732270699    1144.760454773436 
  155000   -5607.186421887331   -5607.186421887331   25086.023080089355  -31837.902952426495    1144.693450449809 
  156000   -5479.536628199501   -5479.536628199501   25279.405857564292  -31840.163955158776    1081.221469394988 
  157000   -5531.026755915802   -5531.026755915802   25169.339299222986  -31838.113171363424    1137.747116224638 
  158000   -5548.766664328145   -5548.766664328145   25191.472709839763  -31841.371561145945    1101.132186978039 
  159000   -5505.134362646400   -5505.134362646400   25258.420302814739  -31836.343918339131    1072.789252877994 
  160000   -5532.578150356265   -5532.578150356265   25305.965460220752  -31837.035130258530     998.491519681512 
  161000   -5637.230009483505   -5637.230009483505   25026.907796693413  -31840.819410509957    1176.681604333043 
  162000   -5528.191867315581   -5528.191867315581   25196.381229277322  -31838.265093302140    1113.691996709235 
  163000   -5553.748966169183   -5553.748966169183   25173.026781232962  -31835.407147945920    1108.631400543779 
  164000   -5504.394975304760   -5504.394975304760   25272.273158426226  -31838.962100898141    1062.293967167153 
  165000   -5528.616230567881   -5528.616230567881   25223.629805502580  -31830.155762415896    1077.909726345432 
  166000   -5514.353167777252   -5514.353167777252   25222.608014488007  -31835.415179748270    1098.453997483010 
  167000   -5507.637400014348   -5507.637400014348   25191.705157829550  -31835.421415353514    1136.078857509611 
  168000   -5457.429019605093   -5457.429019605093   25346.117959296476  -31834.607872389686    1031.060893488115 
  169000   -5572.781549070562   -5572.781549070562   25189.704735853909  -31836.111226519257    1073.624941594782 
  170000   -5539.333466896718   -5539.333466896718   25162.810296585922  -31836.395446056202    1134.251682573565 
  171000   -5513.615867700348   -5513.615867700348   25231.695920854989  -31834.997564294827    1089.685775739492 
  172000   -5518.182707688586   -5518.182707688586   25271.395146780073  -31837.500312361448    1047.922457892789 
  173000   -5584.479062206610   -5584.479062206610   25156.430953653235  -31840.969632826487    1100.059616966643 
  174000   -5528.142082366296   -5528.142082366296   25244.657282064571  -31834.379270390138    1061.579905959272 
  175000   -5579.220739890156   -5579.220739890156   25104.859730887048  -31842.312739806719    1158.232269029514 
  176000   -5515.761389906485   -5515.761389906485   25272.868404845489  -31836.558090198345    1047.928295446373 
  177000   -5587.413606449933   -5587.413606449933   25127.552381500391  -31838.418480924174    1123.452492973853 
  178000   -5601.932808485250   -5601.932808485250   25169.513035631298  -31840.442412374123    1068.996568257574 
  179000   -5543.411114934832   -5543.411114934832   25162.604667758544  -31841.846092952721    1135.830310259345 
  180000   -5528.603159067847   -5528.603159067847   25243.692293378321  -31838.379017697429    1066.083565251261 
  181000   -5571.868343861959   -5571.868343861959   25182.892506111057  -31837.286522305927    1082.525672332913 
  182000   -5547.048900291102   -5547.048900291102   25152.841498556212  -31837.790462922258    1137.900064074943 
  183000   -5571.945420604090   -5571.945420604090   25139.659350805792  -31838.613234136490    1127.008462726610 
  184000   -5524.263546178190   -5524.263546178190   25217.946626862842  -31839.536539680190    1097.326366639158 
  185000   -5546.211583707533   -5546.211583707533   25186.739941459251  -31836.633935176826    1103.682410010045 
  186000   -5519.342718431806   -5519.342718431806   25198.672770747682  -31834.721941216787    1116.706452037297 
  187000   -5529.343767660408   -5529.343767660408   25239.142853144993  -31836.313771861180    1067.827151055779 
  188000   -5556.569457303682   -5556.569457303682   25159.030772526134  -31836.453540072540    1120.853310242725 
  189000   -5533.620195972846   -5533.620195972846   25214.346161720576  -31838.216416222258    1090.250058528834 
  190000   -5518.512098378600   -5518.512098378600   25241.392181495383  -31839.765444164947    1079.861164290963 
  191000   -5492.060354867524   -5492.060354867524   25274.284368225479  -31834.324882583762    1067.980159490759 
  192000   -5559.933566460972   -5559.933566460972   25184.432401135658  -31836.527543440610    1092.161575843982 
  193000   -5545.126887257007   -5545.126887257007   25227.882111102648  -31833.830465888957    1060.821467529303 
  194000   -5446.601264910758   -5446.601264910758   25372.391428532661  -31836.587887049605    1017.595193606184 
  195000   -5555.475350810535   -5555.475350810535   25157.765425487429  -31835.653970129453    1122.413193831484 
  196000   -5540.600741281742   -5540.600741281742   25193.281177700086  -31833.482331056592    1099.600412074765 
  197000   -5560.619937721425   -5560.619937721425   25194.329418657449  -31836.618687598428    1081.669331219555 
  198000   -5490.322111334266   -5490.322111334266   25285.309078499209  -31836.371893684285    1060.740703850811 
  199000   -5465.588893688997   -5465.588893688997   25285.449241729133  -31833.709672880530    1082.671537462404 
  200000   -5535.242929606589   -5535.242929606589   25235.823489038783  -31838.360746901908    1067.294328256534 
  201000   -5553.919753978931   -5553.919753978931   25150.441703735960  -31838.313590781396    1133.952133066503 
  202000   -5504.505443888535   -5504.505443888535   25232.217600100081  -31832.542004855561    1095.818960866945 
  203000   -5542.850796800551   -5542.850796800551   25225.784768364309  -31836.421430987415    1067.785865822555 
  204000   -5574.474480595563   -5574.474480595563   25108.827741271241  -31836.751324059231    1153.449102192428 
  205000   -5484.233156247246   -5484.233156247246   25264.337668150649  -31836.413718125354    1087.842893727464 
  206000   -5572.894039311926   -5572.894039311926   25124.696837976597  -31837.397753109399    1139.806875820880 
  207000   -5517.898388389003   -5517.898388389003   25265.629648710776  -31835.523686003711    1051.995648903938 
  208000   -5509.210159786369   -5509.210159786369   25269.167853579565  -31840.423486251533    1062.045472885599 
  209000   -5491.565212180230   -5491.565212180230   25344.455468102155  -31836.820183924956    1000.799503642571 
  210000   -5497.319922618011   -5497.319922618011   25282.550943867886  -31832.973802688975    1053.102936203082 
  211000   -5535.607492529423   -5535.607492529423   25169.660550092543  -31837.729294769204    1132.461252147240 
  212000   -5585.429685171559   -5585.429685171559   25106.298365961848  -31839.710619537396    1147.982568403983 
  213000   -5520.638623620522   -5520.638623620522   25241.467684360217  -31838.719409035177    1076.613101054441 
  214000   -5502.389196337939   -5502.389196337939   25275.539727730997  -31833.216879661333    1055.287955592396 
  215000   -5532.730091602934   -5532.730091602934   25194.268388118184  -31836.687016046366    1109.688536325253 
  216000   -5538.033917877507   -5538.033917877507   25260.637518747651  -31838.725782883081    1040.054346257923 
  217000   -5515.276035805662   -5515.276035805662   25180.345921647953  -31835.736581751298    1140.114624297679 
  218000   -5550.562361268399   -5550.562361268399   25187.792107769987  -31835.291075917543    1096.936606879158 
  219000   -5547.793297947803   -5547.793297947803   25177.820589550094  -31836.545253181681    1110.931365683786 
  220000   -5501.337092690417   -5501.337092690417   25292.934124476007  -31836.276177943932    1042.004960777504 
  221000   -5588.274466188843   -5588.274466188843   25208.023618182244  -31835.524766592778    1039.226682221691 
  222000   -5544.517953679740   -5544.517953679740   25182.789090209837  -31841.081623139016    1113.774579249443 
  223000   -5544.845352910259   -5544.845352910259   25111.711719981296  -31836.165947420162    1179.608874528606 
  224000   -5554.241379692103   -5554.241379692103   25157.603103950849  -31838.484175509497    1126.639691866545 
  225000   -5581.267886503509   -5581.267886503509   25090.515503587252  -31840.498950564877    1168.715560474117 
  226000   -5498.849972834654   -5498.849972834654   25243.883319324916  -31839.445410308315    1096.712118148746 
  227000   -5524.960515247101   -5524.960515247101   25264.014689972966  -31838.057398389061    1049.082193168994 
  228000   -5522.132616895495   -5522.132616895495   25240.244282637163  -31832.778963858756    1070.402064326103 
  229000   -5491.136219239474   -5491.136219239474   25312.170143037256  -31837.929543284063    1034.623181007338 
  230000   -5457.466209969054   -5457.466209969054   25297.129822722163  -31837.358024558343    1082.761991867128 
  231000   -5538.825524970045   -5538.825524970045   25151.290649181588  -31832.085951459459    1141.969777307830 
  232000   -5500.298241326411   -5500.298241326411   25241.061606808278  -31833.757816481102    1092.397968346409 
  233000   -5562.996807860163   -5562.996807860163   25134.530693758818  -31840.293507126946    1142.766005507965 
  234000   -5560.690187917447   -5560.690187917447   25256.072412271576  -31838.430152235465    1021.667552046448 
  235000   -5474.260408894406   -5474.260408894406   25347.045143705225  -31834.463414312719    1013.157861713086 
  236000   -5533.218572641767   -5533.218572641767   25135.506613622732  -31834.941187324632    1166.216001060129 
  237000   -5571.891266265808   -5571.891266265808   25147.068680046170  -31839.578387554076    1120.618441242099 
  238000   -5481.156622706560   -5481.156622706560   25297.138273918790  -31833.872203826315    1055.577307200969 
  239000   -5562.508726083655   -5562.508726083655   25205.874198233323  -31839.132127815265    1070.749203498287 
  240000   -5595.066093438956   -5595.066093438956   25215.899148835073  -31837.767611673062    1026.802369399033 
  241000   -5514.856934988697   -5514.856934988697   25261.312875629570  -31836.565160211794    1060.395349593531 
  242000   -5537.614811355452   -5537.614811355452   25201.189598190438  -31839.718761464268    1100.914351918375 
  243000   -5569.856318734430   -5569.856318734430   25070.514856212896  -31837.006043317400    1196.634868370074 
  244000   -5598.486080332073   -5598.486080332073   25148.131930712305  -31834.298503844679    1087.680492800302 
  245000   -5535.484133946869   -5535.484133946869   25160.751280773184  -31834.202844792671    1137.967430072618 
  246000   -5600.304823394377   -5600.304823394377   25130.827029259050  -31835.119035244039    1103.987182590613 
  247000   -5595.407042904830   -5595.407042904830   25125.587451891843  -31838.566508573087    1117.572013776413 
  248000   -5541.216094941763   -5541.216094941763   25200.635650047581  -31839.288321482727    1097.436576493382 
  249000   -5569.757159865530   -5569.757159865530   25196.118083033689  -31838.779249791307    1072.904006892087 
  250000   -5484.533558825173   -5484.533558825173   25255.592389988044  -31840.427768495487    1100.301819682277 
  251000   -5486.570704789236   -5486.570704789236   25271.198781444033  -31839.093086291839    1081.323600058567 
  252000   -5552.751546547352   -5552.751546547352   25135.679055390261  -31838.015002112490    1149.584400174879 
  253000   -5547.400293698211   -5547.400293698211   25183.331227811392  -31837.796703104905    1107.065181595303 
  254000   -5522.291122234805   -5522.291122234805   25232.150325506183  -31835.736702295395    1081.295254554404 
  255000   -5603.780227085514   -5603.780227085514   25131.076834503318  -31839.190860959967    1104.333799371136 
  256000   -5592.441026435372   -5592.441026435372   25060.298411331140  -31839.200467924238    1186.461030157730 
  257000   -5533.554528578752   -5533.554528578752   25153.335130200354  -31839.839785395969    1152.950126616861 
  258000   -5522.473415361492   -5522.473415361492   25190.848836921072  -31840.651494221594    1127.329241939033 
  259000   -5563.429175056230   -5563.429175056230   25147.446971067737  -31837.686752396225    1126.810606272261 
  260000   -5551.273107767604   -5551.273107767604   25187.400256909437  -31840.926229324450    1102.252864647407 
  261000   -5509.903254135203   -5509.903254135203   25267.951787789651  -31836.532874365901    1058.677832441048 
  262000   -5536.832270131312   -5536.832270131312   25216.633238165305  -31835.982285757404    1082.516777460787 
  263000   -5486.769958482528   -5486.769958482528   25281.329772617970  -31836.477833361929    1068.378102261430 
  264000   -5577.315264009507   -5577.315264009507   25199.463263715697  -31836.777673005116    1059.999145279910 
  265000   -5494.706875622425   -5494.706875622425   25313.506472359764  -31835.058395128028    1026.845047145843 
  266000   -5498.300336127224   -5498.300336127224   25292.275862649843  -31836.429861825818    1045.853663048749 
  267000   -5507.440490582867   -5507.440490582867   25272.167816352972  -31833.874761824078    1054.266454888238 
  268000   -5560.262323200350   -5560.262323200350   25192.318365522558  -31841.824700773836    1089.244012050925 
  269000   -5454.612954893440   -5454.612954893440   25327.217989195444  -31834.945525200106    1053.114581111217 
  270000   -5531.102219607590   -5531.102219607590   25284.718458630261  -31838.433172044603    1022.612493806746 
  271000   -5508.224233620844   -5508.224233620844   25196.054624239994  -31837.496952969301    1133.218095108466 
  272000   -5494.107170902880   -5494.107170902880   25275.439389368472  -31838.237347921659    1068.690787650312 
  273000   -5488.477031124756   -5488.477031124756   25314.703048125368  -31832.351397190774    1029.171317940656 
  274000   -5502.590888628878   -5502.590888628878   25250.441771760430  -31833.914339878815    1080.881679489507 
  275000   -5535.036757045567   -5535.036757045567   25189.275923575897  -31833.411433710939    1109.098753089473 
  276000   -5518.692875487177   -5518.692875487177   25169.601827852232  -31836.162641712996    1147.867938373582 
  277000   -5560.214891706237   -5560.214891706237   25148.489981969949  -31837.440329887850    1128.735456211662 
  278000   -5459.000280400600   -5459.000280400600   25315.542073498611  -31834.878320464479    1060.335966565270 
  279000   -5479.386680328040   -5479.386680328040   25261.989061240725  -31838.989961403691    1097.614219834926 
  280000   -5494.438246640872   -5494.438246640872   25273.715054060813  -31835.716043399752    1067.562742698062 
  281000   -5478.873183505082   -5478.873183505082   25291.775155776646  -31834.327639375912    1063.679300094179 
  282000   -5537.334268422928   -5537.334268422928   25220.587784477648  -31835.943398772564    1078.021345871988 
  283000   -5526.714622996522   -5526.714622996522   25158.881613175428  -31836.295268863112    1150.699032691160 
  284000   -5531.307409134486   -5531.307409134486   25251.117488400287  -31837.145665371329    1054.720767836553 
  285000   -5523.729996361490   -5523.729996361490   25198.769540439607  -31836.877846796237    1114.378309995135 
  286000   -5524.392144680944   -5524.392144680944   25207.623365011310  -31833.886657090618    1101.871147398361 
  287000   -5512.436118362901   -5512.436118362901   25250.690417914990  -31830.817886091285    1067.691349813395 
  288000   -5523.737835275944   -5523.737835275944   25270.244595129916  -31837.714342342868    1043.731911937007 
  289000   -5552.997898254645   -5552.997898254645   25169.092350937644  -31835.976086819443    1113.885837627155 
  290000   -5494.274943625591   -5494.274943625591   25271.045709155667  -31839.282859582003    1073.962206800748 
  291000   -5535.066683479061   -5535.066683479061   25264.995103148489  -31837.125889534596    1037.064102907048 
  292000   -5551.154659133812   -5551.154659133812   25228.483728726591  -31838.194850776876    1058.556462916475 
  293000   -5610.624725171238   -5610.624725171238   25130.415815471737  -31839.349221653472    1098.308681010497 
  294000   -5599.413400116329   -5599.413400116329   25079.832091832621  -31832.858549804110    1153.613057855158 
  295000   -5503.993162539173   -5503.993162539173   25229.005635765163  -31835.856733972480    1102.857935668145 
  296000   -5547.232758209320   -5547.232758209320   25160.538377599536  -31836.921485760326    1129.150349951466 
  297000   -5534.412689127214   -5534.412689127214   25209.489296830627  -31833.826755215749    1089.924769257906 
  298000   -5534.029831577387   -5534.029831577387   25213.489293432751  -31836.533836743074    1089.014711732935 
  299000   -5580.245859385130   -5580.245859385130   25115.159773582727  -31836.134095832287    1140.728462864428 
  300000   -5503.904762851227   -5503.904762851227   25239.725279005088  -31841.891642731425    1098.261600875110 
  301000   -5486.903716606452   -5486.903716606452   25265.511956890863  -31832.867907274842    1080.452233777526 
  302000   -5514.930474252396   -5514.930474252396   25189.054291549990  -31840.018410650875    1136.033644848487 
  303000   -5526.720826815483   -5526.720826815483   25210.682197158912  -31833.935811537373    1096.532787562982 
  304000   -5569.872139343177   -5569.872139343177   25178.069979681582  -31839.365334997165    1091.423215972406 
  305000   -5590.265934308354   -5590.265934308354   25148.823314045789  -31839.078798147493    1099.989549793345 
  306000   -5553.705553562289   -5553.705553562289   25232.176000537198  -31838.494816871389    1052.613262771901 
  307000   -5516.792269033122   -5516.792269033122   25189.060674094162  -31836.436366805141    1130.583423677858 
  308000   -5510.753536423177   -5510.753536423177   25221.739854305633  -31837.747914017727    1105.254523288918 
  309000   -5535.395356815388   -5535.395356815388   25213.552629274061  -31838.108370990922    1089.160384901476 
  310000   -5542.658466753630   -5542.658466753630   25282.969343988254  -31839.851177044620    1014.223366302734 
  311000   -5557.441852575514   -5557.441852575514   25279.631945267509  -31837.787840623943    1000.714042780919 
  312000   -5514.955593591643   -5514.955593591643   25234.093777432805  -31831.553074775005    1082.503703750557 
  313000   -5505.681663906114   -5505.681663906114   25243.128819668804  -31833.536717273448    1084.726233698525 
  314000   -5550.393095044565   -5550.393095044565   25167.974372592784  -31839.825251809365    1121.457784172018 
  315000   -5536.716405927069   -5536.716405927069   25159.964781006311  -31837.060235241359    1140.379048307982 
  316000   -5518.487332553239   -5518.487332553239   25219.498939587029  -31837.438862056817    1099.452589916549 
  317000   -5510.787724817161   -5510.787724817161   25269.539493754775  -31835.922345874296    1055.595127302353 
  318000   -5474.922005150442   -5474.922005150442   25271.816838497776  -31831.696828229495    1084.957984581278 
  319000   -5545.750123990423   -5545.750123990423   25197.063843261487  -31838.793255921053    1095.979288669144 
  320000   -5531.324201539985   -5531.324201539985   25134.391898496353  -31839.129089087412    1173.412989051074 
  321000   -5506.764246180781   -5506.764246180781   25233.332414100951  -31835.089687080865    1094.993026799131 
  322000   -5504.407664733379   -5504.407664733379   25188.692808558801  -31834.233603333883    1141.133130041704 
  323000   -5547.713428366460   -5547.713428366460   25206.271019922773  -31839.533614184289    1085.549165895055 
  324000   -5552.488497891973   -5552.488497891973   25182.265992348606  -31840.106380764857    1105.351890524277 
  325000   -5517.215198003923   -5517.215198003923   25244.069988963642  -31835.509704852793    1074.224517885227 
  326000   -5577.392359047575   -5577.392359047575   25130.181799637125  -31837.846378031260    1130.272219346560 
  327000   -5519.123976550232   -5519.123976550232   25204.942512310176  -31837.020321869677    1112.953833009273 
  328000   -5569.759162424874   -5569.759162424874   25171.150794725956  -31831.744116866197    1090.834159715366 
  329000   -5534.811480367720   -5534.811480367720   25204.498448968730  -31833.038446745984    1093.728517409537 
  330000   -5542.883516289621   -5542.883516289621   25195.775352221099  -31836.380037439685    1097.721168928963 
  331000   -5526.255316181076   -5526.255316181076   25186.793612686128  -31836.281573423250    1123.232644556045 
  332000   -5540.448367779645   -5540.448367779645   25176.215353189022  -31839.028606224027    1122.364885255363 
  333000   -5505.134653277808   -5505.134653277808   25251.931199273993  -31839.281452689454    1082.215600137654 
  334000   -5526.965476700974   -5526.965476700974   25206.971895667979  -31834.882871345435    1100.945498976482 
  335000   -5569.939921334280   -5569.939921334280   25167.319434983907  -31835.373327339159    1098.113971020970 
  336000   -5506.496321158342   -5506.496321158342   25216.586251341374  -31834.230413860398    1111.147841360684 
  337000   -5491.831428273879   -5491.831428273879   25318.570908575348  -31836.521225160537    1026.118888311309 
  338000   -5505.020471759366   -5505.020471759366   25219.639840271346  -31837.617518921492    1112.957206890771 
  339000   -5557.666055541227   -5557.666055541227   25142.649012817412  -31834.800978318988    1134.485909960347 
  340000   -5521.140573399945   -5521.140573399945   25241.433510095245  -31836.470202038567    1073.896118543377 
  341000   -5582.929510349473   -5582.929510349473   25203.773702056526  -31834.303291129254    1047.600078723250 
  342000   -5591.760479674391   -5591.760479674391   25091.533996394319  -31837.146413347764    1153.851937279059 
  343000   -5543.935093255030   -5543.935093255030   25180.933367932288  -31837.791885866020    1112.923424678703 
  344000   -5526.351789908716   -5526.351789908716   25146.172083508311  -31837.909555430982    1165.385682013953 
  345000   -5546.333081737539   -5546.333081737539   25150.967284953273  -31835.418247761536    1138.117881070726 
  346000   -5519.562204161051   -5519.562204161051   25281.806080265465  -31837.876546590389    1036.508262163871 
  347000   -5582.705981962401   -5582.705981962401   25176.305220759321  -31838.567621901413    1079.556419179690 
  348000   -5509.005172145615   -5509.005172145615   25211.169391323536  -31834.223270853014    1114.048707383860 
  349000   -5512.810400040922   -5512.810400040922   25205.085249055952  -31830.814968247189    1112.919319150314 
  350000   -5533.396843532370   -5533.396843532370   25273.638004553770  -31836.458158854544    1029.423310768407 
  351000   -5461.906406318732   -5461.906406318732   25333.546721367798  -31833.556270313667    1038.103142627143 
  352000   -5480.427017467409   -5480.427017467409   25251.903379258594  -31834.923313285930    1102.592916559924 
  353000   -5543.993247950519   -5543.993247950519   25178.355045213408  -31836.139634197261    1113.791341033327 
  354000   -5503.773554451902   -5503.773554451902   25261.378420255169  -31837.507363808843    1072.355389101773 
  355000   -5554.717098759909   -5554.717098759909   25182.210927044893  -31840.588554540973    1103.660528736172 
  356000   -5571.516638861129   -5571.516638861129   25156.456223451318  -31842.625337756854    1114.652475444414 
  357000   -5548.958026876120   -5548.958026876120   25133.655502911832  -31834.876094363273    1152.262564575324 
  358000   -5500.454985344222   -5500.454985344222   25257.266737321112  -31839.263936241958    1081.542213576619 
  359000   -5495.859155402199   -5495.859155402199   25246.170008333582  -31834.473256625381    1092.444092889598 
  360000   -5483.955800292631   -5483.955800292631   25347.603472346960  -31839.893480258102    1008.334207618512 
  361000   -5564.579329425440   -5564.579329425440   25117.777006188411  -31836.883070268315    1154.526734654464 
  362000   -5517.962538429554   -5517.962538429554   25252.236445815288  -31837.998336909342    1067.799352664500 
  363000   -5497.830580968523   -5497.830580968523   25276.084612501167  -31832.089309100167    1058.174115630476 
  364000   -5505.913377878504   -5505.913377878504   25276.196557235467  -31834.770883628829    1052.660948514854 
  365000   -5491.407698128711   -5491.407698128711   25306.035547305590  -31837.074003091700    1039.630757657396 
  366000   -5618.509621562629   -5618.509621562629   25106.100981773758  -31839.334000527651    1114.723397191266 
  367000   -5548.561735201187   -5548.561735201187   25280.722600442456  -31837.664438560521    1008.380102916880 
  368000   -5528.059996157779   -5528.059996157779   25186.337282501103  -31837.178605854697    1122.781327195812 
  369000   -5508.251405201336   -5508.251405201336   25210.802101940397  -31831.838711217802    1112.785204076069 
  370000   -5545.778725164000   -5545.778725164000   25182.210316665631  -31836.724394100384    1108.735352270753 
  371000   -5524.657659569999   -5524.657659569999   25182.912589920190  -31835.680917708258    1128.110668218063 
  372000   -5525.924628091194   -5525.924628091194   25204.894065245029  -31839.723960185995    1108.905266849773 
  373000   -5478.453175866918   -5478.453175866918   25350.794281682200  -31838.943861570682    1009.696404021565 
  374000   -5538.872702029763   -5538.872702029763   25190.806169623378  -31839.020009159078    1109.341137505935 
  375000   -5596.094414105002   -5596.094414105002   25130.240962792130  -31840.015493240095    1113.680116342964 
  376000   -5564.009327087726   -5564.009327087726   25221.679320232441  -31840.008841321251    1054.320194001083 
  377000   -5560.427626535602   -5560.427626535602   25248.693795728483  -31838.029425686866    1028.908003422783 
  378000   -5557.953647871575   -5557.953647871575   25188.294235735553  -31835.567697580540    1089.319813973415 
  379000   -5574.544212652811   -5574.544212652811   25179.827543870859  -31836.478589193230    1082.106832669561 
  380000   -5554.764893779975   -5554.764893779975   25233.934746114392  -31840.302984751786    1051.603344857419 
  381000   -5499.211973778565   -5499.211973778565   25296.482242089849  -31839.048095259135    1043.353879390720 
  382000   -5550.548629145556   -5550.548629145556   25149.950725768580  -31833.442049421606    1132.942694507472 
  383000   -5493.757245132991   -5493.757245132991   25268.472842583498  -31835.443994683352    1073.213906966859 
  384000   -5564.531054701503   -5564.531054701503   25122.022482677123  -31839.451644454923    1152.898107076299 
  385000   -5572.534462806048   -5572.534462806048   25164.907717129063  -31840.636832663433    1103.194652728321 
  386000   -5588.268255397474   -5588.268255397474   25149.129058994808  -31838.180993379832    1100.783678987551 
  387000   -5560.856292790933   -5560.856292790933   25102.983693691400  -31837.272273571391    1173.432287089058 
  388000   -5464.906413148383   -5464.906413148383   25303.399046420735  -31836.792020869631    1068.486561300512 
  389000   -5525.212196998960   -5525.212196998960   25206.770138794403  -31839.593690923484    1107.611355130118 
  390000   -5569.288330073399   -5569.288330073399   25223.916623953908  -31835.411855588987    1042.206901561680 
  391000   -5506.438901099991   -5506.438901099991   25242.861808427413  -31837.685584078561    1088.384874551158 
  392000   -5587.505449097971   -5587.505449097971   25128.985738599822  -31837.855335643791    1121.364147945999 
  393000   -5477.795234834539   -5477.795234834539   25208.511167351255  -31833.994812870023    1147.688410684228 
  394000   -5566.177702776644   -5566.177702776644   25198.355369509318  -31837.541149757963    1073.008077471998 
  395000   -5481.505194675548   -5481.505194675548   25291.019492039555  -31827.449479621398    1054.924792906291 
  396000   -5539.548582144536   -5539.548582144536   25224.068401622950  -31836.010123015447    1072.393139247956 
  397000   -5549.536154986850   -5549.536154986850   25178.644531864862  -31836.714432982088    1108.533746130377 
  398000   -5564.302407398147   -5564.302407398147   25105.677808539658  -31842.768966064683    1172.788750126877 
  399000   -5564.635145633369   -5564.635145633369   25189.959999567691  -31833.640562436318    1079.045417235258 
  400000   -5542.354071622485   -5542.354071622485   25222.669246996331  -31838.230123748541    1073.206805129721 
  401000   -5535.121804075425   -5535.121804075425   25190.391945303869  -31834.844507332768    1109.330757953471 
  402000   -5514.795704277280   -5514.795704277280   25215.191907888558  -31836.778901981401    1106.791289815566 
  403000   -5582.698120480105   -5582.698120480105   25125.503456245831  -31839.258784996939    1131.057208271001 
  404000   -5548.151015792871   -5548.151015792871   25128.536668706256  -31838.209820731892    1161.522136232759 
  405000   -5546.905158231013   -5546.905158231013   25167.671097235412  -31840.815775179399    1126.239519712973 
  406000   -5586.607452622226   -5586.607452622226   25138.733435144517  -31834.886589944417    1109.545702177672 
  407000   -5642.502373947831   -5642.502373947831   25054.097931364890  -31837.983278294392    1141.382972981668 
  408000   -5484.840163834648   -5484.840163834648   25311.721474445058  -31836.750133271729    1040.188494992026 
  409000   -5499.411038594637   -5499.411038594637   25271.347281486658  -31834.655705446250    1063.897385364954 
  410000   -5497.341927834419   -5497.341927834419   25191.024651380605  -31836.591535049844    1148.224955834818 
  411000   -5538.517367242523   -5538.517367242523   25242.771591041568  -31837.891816489639    1056.602858205551 
  412000   -5517.895348238406   -5517.895348238406   25222.691264489833  -31835.899290116668    1095.312677388431 
  413000   -5476.899534139437   -5476.899534139437   25283.016227939050  -31837.067047555825    1077.151285477342 
  414000   -5561.012687991519   -5561.012687991519   25210.943718990988  -31837.392818973538    1065.436411991036 
  415000   -5478.771133420039   -5478.771133420039   25247.091083613930  -31838.190753373325    1112.328536339358 
  416000   -5567.045510136752   -5567.045510136752   25175.300642594069  -31839.229349482608    1096.883196751786 
  417000   -5518.945654862808   -5518.945654862808   25259.282714153880  -31839.357866872517    1061.129497855828 
  418000   -5555.281421301966   -5555.281421301966   25244.862299059638  -31838.542483935438    1038.398763573833 
  419000   -5542.287827455348   -5542.287827455348   25180.119969807889  -31838.414222753454    1116.006425490220 
  420000   -5475.227209139866   -5475.227209139866   25246.914103136329  -31834.784340810296    1112.643028534103 
  421000   -5556.567796413550   -5556.567796413550   25162.219934573597  -31843.409679574179    1124.621948587032 
  422000   -5510.139767863810   -5510.139767863810   25265.821959515972  -31837.955590348683    1061.993862968898 
  423000   -5555.719516183824   -5555.719516183824   25233.987704543513  -31836.970836797031    1047.263616069690 
  424000   -5550.561603920756   -5550.561603920756   25173.900672121144  -31834.517991479741    1110.055715437843 
  425000   -5521.790080003317   -5521.790080003317   25269.303662238086  -31838.727019711132    1047.633277469731 
  426000   -5649.359620543539   -5649.359620543539   25029.043398594622  -31840.783658963774    1162.380639825611 
  427000   -5553.092892586246   -5553.092892586246   25149.647265562460  -31837.053300527550    1134.313142378848 
  428000   -5541.442061229791   -5541.442061229791   25191.612778064024  -31837.097993779349    1104.043154485533 
  429000   -5528.130530796927   -5528.130530796927   25306.588377624503  -31833.869334230090     999.150425808659 
  430000   -5591.502637931226   -5591.502637931226   25173.011260231156  -31837.686684882887    1073.172786720502 
  431000   -5553.344509782524   -5553.344509782524   25132.447468569710  -31834.602260148116    1148.810281795879 
  432000   -5558.217224781220   -5558.217224781220   25220.920166252319  -31842.538705095707    1063.401314062163 
  433000   -5588.586027892965   -5588.586027892965   25097.987621693028  -31835.438405950612    1148.864756364621 
  434000   -5521.478884207729   -5521.478884207729   25293.688557318721  -31835.350191209040    1020.182749682594 
  435000   -5524.220844027033   -5524.220844027033   25207.680179855637  -31839.676815522907    1107.775791640239 
  436000   -5561.118050149274   -5561.118050149274   25121.569961983092  -31837.897180909960    1155.209168777596 
  437000   -5507.989536529702   -5507.989536529702   25227.972186325143  -31835.143774770851    1099.182051916011 
  438000   -5586.642400382043   -5586.642400382043   25071.837930433547  -31838.246667207794    1179.766336392202 
  439000   -5554.365051623929   -5554.365051623929   25191.957145030516  -31837.312775787810    1090.990579133366 
  440000   -5527.863632648558   -5527.863632648558   25201.812418338908  -31835.562755211151    1105.886704223689 
  441000   -5515.084891410490   -5515.084891410490   25269.266559636071  -31835.928164957750    1051.576713911189 
  442000   -5559.038784173463   -5559.038784173463   25224.325614105874  -31840.587957624921    1057.223559345584 
  443000   -5543.491781983656   -5543.491781983656   25233.468960100414  -31833.424463583353    1056.463721499280 
  444000   -5509.650258803020   -5509.650258803020   25271.642725780264  -31834.696543104506    1053.403558521227 
  445000   -5492.458741955212   -5492.458741955212   25285.587654044699  -31838.991519750369    1060.945123750459 
  446000   -5495.522678644858   -5495.522678644858   25270.591024029283  -31841.402860142527    1075.289157468379 
  447000   -5533.722258912276   -5533.722258912276   25211.364082747321  -31837.095465958482    1092.009124298880 
  448000   -5561.623402260931   -5561.623402260931   25192.681687160846  -31837.662407412583    1083.357317990801 
  449000   -5483.101571688319   -5483.101571688319   25280.678360374150  -31837.352092622248    1073.572160559780 
  450000   -5600.151222187444   -5600.151222187444   25127.528284904223  -31837.386716052140    1109.707208960475 
  451000   -5536.295925480590   -5536.295925480590   25125.943597929338  -31835.048621940208    1172.809098530282 
  452000   -5524.150552042924   -5524.150552042924   25217.271958025485  -31837.524998604655    1096.102488536249 
  453000   -5446.827587709566   -5446.827587709566   25404.631847234450  -31835.677325297565     984.217890353548 
  454000   -5584.394727850959   -5584.394727850959   25179.137345931435  -31839.452026956478    1075.919953174084 
  455000   -5483.400216717993   -5483.400216717993   25254.354604710366  -31838.128190073279    1100.373368644914 
  456000   -5529.386812607147   -5529.386812607147   25199.869270829615  -31836.271645380803    1107.015561944041 
  457000   -5534.223590764410   -5534.223590764410   25207.818015283934  -31838.807634774417    1096.766028726072 
  458000   -5524.890113774243   -5524.890113774243   25165.145306750419  -31840.457191430989    1150.421770906329 
  459000   -5530.988817954356   -5530.988817954356   25151.446032305023  -31837.013373200727    1154.578522941347 
  460000   -5518.894602566579   -5518.894602566579   25245.124545403803  -31840.031250613138    1076.012102642756 
  461000   -5460.080895560786   -5460.080895560786   25269.055205774068  -31840.749841381221    1111.613740046361 
  462000   -5475.984004700946   -5475.984004700946   25251.306410742436  -31836.812321354671    1109.521905911287 
  463000   -5505.887170703998   -5505.887170703998   25341.298875202301  -31838.026721628463     990.840675722165 
  464000   -5438.856713772100   -5438.856713772100   25322.314502599504  -31833.752863595299    1072.581647223693 
  465000   -5503.340273135273   -5503.340273135273   25279.679305091635  -31837.175959587974    1054.156381361062 
  466000   -5523.284430643347   -5523.284430643347   25206.585370983950  -31840.058354005145    1110.188552377850 
  467000   -5536.101045939511   -5536.101045939511   25264.151635816277  -31836.525829643633    1036.273147887845 
  468000   -5492.949988763728   -5492.949988763728   25225.584728014524  -31836.888001191433    1118.353284413179 
  469000   -5524.203663587628   -5524.203663587628   25266.443855991180  -31835.445369773304    1044.797850194493 
  470000   -5503.815771901052   -5503.815771901052   25215.833578821566  -31838.385000281556    1118.735649558944 
  471000   -5556.762670674314   -5556.762670674314   25126.921406926424  -31839.338733716286    1155.654656115546 
  472000   -5610.138647237622   -5610.138647237622   25058.054863415942  -31840.145503302312    1171.951992648743 
  473000   -5563.797920397006   -5563.797920397006   25093.691262005927  -31838.451081389128    1180.961898986191 
  474000   -5521.820109480537   -5521.820109480537   25251.966249929734  -31841.055231782531    1067.268872372259 
  475000   -5585.717505015808   -5585.717505015808   25151.705203188088  -31837.119636892978    1099.696928689083 
  476000   -5515.039733041100   -5515.039733041100   25188.522648910144  -31839.702611736677    1136.140229785430 
  477000   -5559.525232379310   -5559.525232379310   25183.610569022840  -31836.479201536396    1093.343400134245 
  478000   -5597.547444507451   -5597.547444507451   25172.308989328245  -31836.155524219517    1066.299090383823 
  479000   -5561.504437489442   -5561.504437489442   25195.910283791894  -31834.774013381644    1077.359292100308 
  480000   -5551.844546073913   -5551.844546073913   25155.841145495986  -31840.546993177948    1132.861301608052 
  481000   -5548.229194143609   -5548.229194143609   25115.658243885977  -31834.598834925495    1170.711396895911 
  482000   -5555.893108605138   -5555.893108605138   25175.950242821877  -31838.197858831780    1106.354507404765 
  483000   -5576.252718358384   -5576.252718358384   25093.075319105752  -31838.390836045070    1169.062798580936 
  484000   -5546.646138835993   -5546.646138835993   25137.572961133345  -31837.086517965468    1152.867417996131 
  485000   -5563.258988306865   -5563.258988306865   25186.220451627429  -31836.610680510625    1087.131240576340 
  486000   -5507.959197900167   -5507.959197900167   25211.086482404360  -31833.752180710730    1114.706500406202 
  487000   -5543.361222307019   -5543.361222307019   25254.695242808979  -31838.858398125354    1040.801933009357 
  488000   -5504.901962819880   -5504.901962819880   25237.842016873372  -31835.864709839298    1093.120730146043 
  489000   -5536.656264495818   -5536.656264495818   25193.240819809798  -31838.194594320827    1108.297510015208 
  490000   -5560.320034727763   -5560.320034727763   25133.139425711313  -31840.792062947381    1147.332602508304 
  491000   -5537.355641604365   -5537.355641604365   25152.076042019886  -31840.712576286736    1151.280892662485 
  492000   -5496.146023292436   -5496.146023292436   25324.455208938496  -31833.407410842348    1012.806178611419 
  493000   -5549.954576439279   -5549.954576439279   25202.491032917289  -31840.532297467715    1088.086688111144 
  494000   -5491.645983645602   -5491.645983645602   25201.123500818387  -31832.266659902180    1139.497175438190 
  495000   -5515.348035836480   -5515.348035836480   25265.323980068486  -31837.013240780932    1056.341224875967 
  496000   -5562.393373717070   -5562.393373717070   25161.937735387535  -31833.840358834135    1109.509249729529 
  497000   -5489.557237803190   -5489.557237803190   25303.841343374734  -31835.602066126401    1042.203484948476 
  498000   -5485.597351089062   -5485.597351089062   25319.439293735246  -31836.105549236599    1031.068904412291 
  499000   -5564.424126348320   -5564.424126348320   25193.115606626729  -31840.944211602611    1083.404478627567 
  500000   -5587.931124121427   -5587.931124121427   25201.211383155311  -31843.040621016393    1053.898113739656 
  501000   -5626.514201082504   -5626.514201082504   25158.924781332775  -31839.460981218243    1054.021998802964 
  502000   -5538.498039772578   -5538.498039772578   25201.201820143637  -31834.658785770011    1094.958925853797 
  503000   -5591.607341195649   -5591.607341195649   25124.785323361528  -31839.264303008204    1122.871638451027 
  504000   -5573.794053946945   -5573.794053946945   25077.836181547475  -31837.106389269047    1185.476153774627 
  505000   -5539.982810044312   -5539.982810044312   25165.937758717409  -31838.297372108522    1132.376803346797 
  506000   -5540.687750509231   -5540.687750509231   25230.211830049193  -31838.525440969130    1067.625860410704 
  507000   -5568.418034463990   -5568.418034463990   25161.903347835163  -31837.047680663509    1106.726298364356 
  508000   -5505.402322988637   -5505.402322988637   25309.894896052730  -31834.905158987553    1019.607939946182 
  509000   -5548.138486048218   -5548.138486048218   25161.548888076562  -31837.398386581561    1127.711012456783 
  510000   -5534.051811308764   -5534.051811308764   25221.438500413926  -31838.582081822777    1083.091770100088 
  511000   -5562.706421895153   -5562.706421895153   25176.987912959175  -31836.556268352495    1096.861933498160 
  512000   -5567.856329653747   -5567.856329653747   25218.745668247524  -31836.100808557007    1049.498810655737 
  513000   -5535.156789422239   -5535.156789422239   25264.904770808571  -31838.170792181503    1038.109231950697 
  514000   -5574.748062845356   -5574.748062845356   25143.678981429781  -31840.487711247901    1122.060666972763 
  515000   -5568.781122056982   -5568.781122056982   25092.817211674235  -31838.508245829711    1176.909912098499 
  516000   -5511.817629188121   -5511.817629188121   25221.041291042158  -31837.343938056994    1104.485017826716 
  517000   -5563.900408055903   -5563.900408055903   25116.965200561714  -31838.102130495419    1157.236521877802 
  518000   -5512.884516681421   -5512.884516681421   25239.231883909742  -31834.223235514648    1082.106834923489 
  519000   -5460.645072474181   -5460.645072474181   25336.321622283707  -31837.712303399276    1040.745608641391 
  520000   -5486.498968013944   -5486.498968013944   25306.894449058069  -31835.035614899134    1041.642197827126 
  521000   -5522.583220242752   -5522.583220242752   25242.998099766100  -31838.821568839106    1073.240248830252 
  522000   -5528.275268236626   -5528.275268236626   25180.691217819574  -31839.675053950356    1130.708567894151 
  523000   -5561.843118921595   -5561.843118921595   25205.207558243092  -31837.586556438826    1070.535879274140 
  524000   -5509.136579636081   -5509.136579636081   25270.398785185771  -31836.839796219519    1057.304431397668 
  525000   -5455.213622456391   -5455.213622456391   25315.438495015678  -31841.133353917812    1070.481236445743 
  526000   -5553.599283026699   -5553.599283026699   25243.161860528882  -31837.631941040087    1040.870797484507 
  527000   -5545.704946076006   -5545.704946076006   25245.569259856413  -31839.007371659896    1047.733165727475 
  528000   -5542.418041042027   -5542.418041042027   25277.085192053706  -31838.537221918068    1019.033988822337 
  529000   -5552.981546364321   -5552.981546364321   25220.817755347223  -31835.909565045564    1062.110263334014 
  530000   -5504.700421076112   -5504.700421076112   25244.989158074146  -31835.719169492742    1086.029590342489 
  531000   -5521.556343304394   -5521.556343304394   25219.641261611010  -31838.121664068429    1096.924059153027 
  532000   -5546.092909253148   -5546.092909253148   25147.876537190248  -31839.755972959178    1145.786526515787 
  533000   -5503.898172606288   -5503.898172606288   25176.479994598503  -31838.714206647655    1158.336039442862 
  534000   -5607.323618885821   -5607.323618885821   25020.367963988094  -31839.754927440896    1212.063344566980 
  535000   -5599.082610208545   -5599.082610208545   25124.285954601055  -31840.589842498051    1117.221277688452 
  536000   -5574.908219114644   -5574.908219114644   25194.754384599179  -31835.555045361718    1065.892441647892 
  537000   -5485.324241284445   -5485.324241284445   25251.692900030426  -31839.193836570761    1102.176695255885 
  538000   -5577.576216284877   -5577.576216284877   25112.222528298975  -31834.261594482705    1144.462849898852 
  539000   -5488.747673160342   -5488.747673160342   25300.700448546679  -31832.210559393683    1042.762437686663 
  540000   -5559.260450830265   -5559.260450830265   25195.313088022282  -31836.409946602234    1081.836407749690 
  541000   -5532.705614290662   -5532.705614290662   25194.583105767735  -31838.632598825192    1111.343878766798 
  542000   -5568.913670306425   -5568.913670306425   25138.811228140508  -31839.910062800423    1132.185164353490 
  543000   -5509.414993853225   -5509.414993853225   25161.818636752807  -31836.756604889477    1165.522974283446 
  544000   -5511.673289511600   -5511.673289511600   25237.791139633286  -31838.271785825887    1088.807356680999 
  545000   -5520.076019448272   -5520.076019448272   25231.766704667090  -31834.683847265223    1082.841123149859 
  546000   -5558.998452075924   -5558.998452075924   25165.125116751569  -31836.560985269844    1112.437416442349 
  547000   -5470.121100204269   -5470.121100204269   25233.678236612439  -31837.534347803899    1133.735010987188 
  548000   -5538.556390015980   -5538.556390015980   25240.320022920827  -31837.401912976027    1058.525500039225 
  549000   -5484.222626514493   -5484.222626514493   25297.519311687141  -31833.635765646697    1051.893827445060 
  550000   -5501.786757420927   -5501.786757420927   25269.868152536284  -31836.918751320147    1065.263841362937 
  551000   -5508.905694432102   -5508.905694432102   25220.932248641762  -31832.086302249696    1102.248359175833 
  552000   -5527.553689509175   -5527.553689509175   25211.308392963158  -31835.353649771485    1096.491567299148 
  553000   -5589.700575832147   -5589.700575832147   25090.280220629946  -31837.734221442792    1157.753424980702 
  554000   -5575.782304104363   -5575.782304104363   25201.168551471972  -31840.706799112373    1063.755943536038 
  555000   -5461.286991047309   -5461.286991047309   25276.935683816122  -31842.166367659069    1103.943692795639 
  556000   -5491.395679155747   -5491.395679155747   25249.061624488015  -31839.920785803934    1099.463482160175 
  557000   -5487.760242190383   -5487.760242190383   25251.490910079905  -31837.097232776923    1097.846080506636 
  558000   -5482.995348830529   -5482.995348830529   25251.024452116770  -31832.550625297179    1098.530824349882 
  559000   -5474.635925606617   -5474.635925606617   25254.318429846346  -31833.555875998569    1104.601520545604 
  560000   -5509.822706094154   -5509.822706094154   25318.602530427321  -31833.692868874514    1005.267632353041 
  561000   -5562.517642627827   -5562.517642627827   25196.165282281960  -31836.206647858446    1077.523722948660 
  562000   -5517.388662076752   -5517.388662076752   25198.358862909834  -31838.455256960267    1122.707731973678 
  563000   -5487.908388754113   -5487.908388754113   25292.520348623908  -31838.600413872737    1058.171676494711 
  564000   -5512.220649286086   -5512.220649286086   25277.986187658527  -31831.287800551858    1041.080963607250 
  565000   -5560.339776947614   -5560.339776947614   25149.707485799066  -31836.985579894703    1126.938317148024 
  566000   -5526.619466156088   -5526.619466156088   25157.058329971340  -31831.529330878824    1147.851534751398 
  567000   -5500.872324028376   -5500.872324028376   25225.388552891269  -31835.280996859543    1109.020119939897 
  568000   -5553.032962104353   -5553.032962104353   25183.211214998748  -31835.239742154965    1098.995565051867 
  569000   -5544.993962166085   -5544.993962166085   25168.232289828298  -31838.337655025036    1125.111403030651 
  570000   -5482.424103001144   -5482.424103001144   25289.145398688655  -31834.085195081516    1062.515693391718 
  571000   -5555.509488212778   -5555.509488212778   25236.659414586342  -31837.582907320106    1045.414004520982 
  572000   -5529.018251029174   -5529.018251029174   25194.141120800028  -31839.615660909883    1116.456289080681 
  573000   -5507.595751845209   -5507.595751845209   25236.793710379163  -31839.623800246740    1095.234338022370 
  574000   -5587.973923961908   -5587.973923961908   25135.374414599541  -31838.293314115152    1114.944975553698 
  575000   -5539.641155135057   -5539.641155135057   25145.534750114966  -31835.034983297293    1149.859078047263 
  576000   -5555.916252069004   -5555.916252069004   25178.601426773916  -31836.874488874015    1102.356810031091 
  577000   -5511.403161982162   -5511.403161982162   25301.390041800871  -31839.190228209656    1026.397024426625 
  578000   -5493.007424839394   -5493.007424839394   25288.841682947706  -31837.368061110858    1055.518953323755 
  579000   -5508.922484694212   -5508.922484694212   25249.431099555892  -31837.573103175408    1079.219518925306 
  580000   -5560.150009078112   -5560.150009078112   25175.043480336288  -31837.522414182364    1102.328924767962 
  581000   -5542.518589989340   -5542.518589989340   25184.881581280795  -31840.089290134747    1112.689118864612 
  582000   -5564.806061088555   -5564.806061088555   25102.856967801439  -31836.660035791414    1168.997006901420 
  583000   -5509.243558193171   -5509.243558193171   25191.504146500549  -31834.525426140892    1133.777721447174 
  584000   -5590.684921216111   -5590.684921216111   25096.240085486868  -31834.779689913004    1147.854683210024 
  585000   -5528.105077030737   -5528.105077030737   25193.069475667198  -31838.570112860070    1117.395560162136 
  586000   -5497.971335369773   -5497.971335369773   25235.891091229525  -31834.552367524717    1100.689940925419 
  587000   -5510.139691010416   -5510.139691010416   25258.837282726578  -31836.142597034959    1067.165623297966 
  588000   -5515.282252415156   -5515.282252415156   25266.073105283729  -31838.792332294302    1057.436974595416 
  589000   -5561.021164715148   -5561.021164715148   25131.014897098488  -31838.012347038046    1145.976285224407 
  590000   -5475.309432224825   -5475.309432224825   25286.202107918776  -31835.802443987250    1074.290903843646 
  591000   -5520.323474027915   -5520.323474027915   25211.480921782513  -31837.125869417017    1105.321473606590 
  592000   -5588.234229166887   -5588.234229166887   25179.980403126807  -31840.612986321161    1072.398354027474 
  593000   -5500.222108293434   -5500.222108293434   25209.168981581424  -31840.950937205125    1131.559847330266 
  594000   -5514.654958555479   -5514.654958555479   25188.906612695540  -31837.806798123351    1134.245226872331 
  595000   -5521.298580392689   -5521.298580392689   25199.242886406995  -31837.781980432141    1117.240513632461 
  596000   -5563.417692246949   -5563.417692246949   25124.004491317915  -31838.226209652748    1150.804026087881 
  597000   -5557.171584776559   -5557.171584776559   25128.468457782281  -31838.347292129351    1152.707249570509 
  598000   -5520.698310900279   -5520.698310900279   25182.039096106018  -31834.337748297494    1131.600341291196 
  599000   -5541.768875066464   -5541.768875066464   25141.090236579555  -31832.118127134974    1149.259015488954 
  600000   -5539.819054842337   -5539.819054842337   25237.566467266432  -31837.658716411825    1060.273194303048 
  601000   -5557.049173981002   -5557.049173981002   25235.130169568038  -31837.862051006392    1045.682707457354 
  602000   -5583.588963784019   -5583.588963784019   25216.582933677466  -31834.533814144135    1034.361916682649 
  603000   -5526.523001717651   -5526.523001717651   25247.137304879216  -31834.615304864652    1060.954998267783 
  604000   -5491.149802508113   -5491.149802508113   25221.779340855028  -31834.793699703336    1121.864556340193 
  605000   -5492.851855018434   -5492.851855018434   25322.444870176354  -31833.192966276958    1017.896241082171 
  606000   -5517.960705320191   -5517.960705320191   25239.860322026550  -31838.082820931257    1080.261793584519 
  607000   -5556.880637754603   -5556.880637754603   25207.454552106628  -31837.974187110227    1073.638997248995 
  608000   -5501.748361588117   -5501.748361588117   25265.780373455782  -31837.320815139745    1069.792080095845 
  609000   -5520.951117560966   -5520.951117560966   25246.856794084670  -31838.178834913790    1070.370923268153 
  610000   -5508.378494747361   -5508.378494747361   25203.088154434066  -31834.205617415879    1122.738968234450 
  611000   -5541.511002006544   -5541.511002006544   25200.747132377939  -31841.115739788835    1098.857605404348 
  612000   -5594.942719082843   -5594.942719082843   25139.652622493239  -31835.852835876336    1101.257494300256 
  613000   -5552.689560218463   -5552.689560218463   25141.017199137357  -31833.999641233131    1140.292881877316 
  614000   -5577.428340525468   -5577.428340525468   25135.801322818232  -31837.709844457146    1124.480181113447 
  615000   -5577.745603060950   -5577.745603060950   25093.692050044352  -31835.657243825361    1164.219590720061 
  616000   -5576.098604090235   -5576.098604090235   25164.501095906548  -31832.697764381912    1092.098064385130 
  617000   -5579.389030387396   -5579.389030387396   25140.539622350341  -31836.347406805882    1116.418754068146 
  618000   -5520.214267624182   -5520.214267624182   25205.229173893949  -31837.177526970463    1111.734085452330 
  619000   -5507.421296736600   -5507.421296736600   25288.735927132017  -31836.823142596848    1040.665918728234 
  620000   -5533.172686815364   -5533.172686815364   25157.955786211103  -31835.852381050456    1144.723908023984 
  621000   -5527.041737957385   -5527.041737957385   25263.266050967333  -31836.986432152800    1046.678643228079 
  622000   -5489.185529363323   -5489.185529363323   25253.567147278372  -31837.093151670055    1094.340475028356 
  623000   -5524.294029300541   -5524.294029300541   25176.027714143893  -31839.327089139941    1139.005345695508 
  624000   -5523.621695978531   -5523.621695978531   25164.304964604864  -31834.815507226442    1146.888846643049 
  625000   -5520.307462462024   -5520.307462462024   25166.845762090485  -31833.291461726058    1146.138237173550 
  626000   -5518.989163363101   -5518.989163363101   25170.377705754880  -31831.985928012520    1142.619058894537 
  627000   -5540.926955267849   -5540.926955267849   25114.923222240017  -31837.919618223717    1182.069440715853 
  628000   -5509.066075852123   -5509.066075852123   25165.318096775711  -31831.069472971580    1156.685300343747 
  629000   -5525.032281002419   -5525.032281002419   25187.840450732594  -31840.424783723440    1127.552051988425 
  630000   -5545.348635200717   -5545.348635200717   25229.521194494202  -31841.843293025802    1066.973463330882 
  631000   -5485.207597643788   -5485.207597643788   25334.651949928688  -31839.226355654489    1019.366808082016 
  632000   -5520.390565297836   -5520.390565297836   25207.368380966527  -31835.419214443340    1107.660268178978 
  633000   -5559.312616882147   -5559.312616882147   25107.581400266379  -31834.886956818067    1167.992939669544 
  634000   -5528.366429338777   -5528.366429338777   25226.944410895343  -31837.824871139750    1082.514030905629 
  635000   -5523.413954698495   -5523.413954698495   25179.217671437134  -31839.318265850066    1136.686639714438 
  636000   -5511.651782247151   -5511.651782247151   25249.527413473625  -31834.951014670987    1073.771818950214 
  637000   -5550.470296793475   -5550.470296793475   25171.791650356950  -31838.497395488161    1116.235448337731 
  638000   -5496.038915334724   -5496.038915334724   25241.513280088519  -31835.013077176198    1097.460881752953 
  639000   -5535.128821491671   -5535.128821491671   25219.988269942602  -31839.499093972187    1084.382002537918 
  640000   -5520.205420449656   -5520.205420449656   25171.895100581198  -31839.798113570392    1147.697592539541 
  641000   -5522.148084656452   -5522.148084656452   25141.974745949530  -31836.898659642044    1172.775829036062 
  642000   -5527.838518442186   -5527.838518442186   25256.822566795719  -31840.763674245543    1056.102589007637 
  643000   -5524.530143224230   -5524.530143224230   25214.263165259363  -31836.852961502587    1098.059653019002 
  644000   -5527.617997863894   -5527.617997863894   25185.752809078764  -31837.919179230496    1124.548372287842 
  645000   -5542.244657063769   -5542.244657063769   25258.075123202416  -31837.332402851967    1037.012622585784 
  646000   -5613.588601855958   -5613.588601855958   25129.342505042714  -31838.979910377329    1096.048803478665 
  647000   -5530.707939256721   -5530.707939256721   25199.086369604232  -31836.338647380879    1106.544338519927 
  648000   -5518.580003505554   -5518.580003505554   25179.000146397822  -31835.906817986110    1138.326668082727 
  649000   -5613.488995136602   -5613.488995136602   25167.290621190616  -31840.119310534224    1059.339694207007 
  650000   -5540.262182697876   -5540.262182697876   25151.628001058452  -31834.991485719514    1143.101301963186 
  651000   -5525.591759428160   -5525.591759428160   25141.747218005410  -31836.077691322444    1168.738713888874 
  652000   -5500.957379588548   -5500.957379588548   25250.460216177020  -31836.846746944932    1085.429151179362 
  653000   -5503.739157800010   -5503.739157800010   25254.388588058835  -31840.249577810508    1082.121831951662 
  654000   -5454.648846382308   -5454.648846382308   25422.035162174681  -31837.769676475127     961.085667918141 
  655000   -5555.768059299378   -5555.768059299378   25169.281703237612  -31839.402748612752    1114.352986075760 
  656000   -5522.593862635029   -5522.593862635029   25213.053075427641  -31837.874859882981    1102.227921820317 
  657000   -5562.456707357534   -5562.456707357534   25188.686726726020  -31840.548215464940    1089.404781381380 
  658000   -5556.926961375735   -5556.926961375735   25229.772864916729  -31838.926730669209    1052.226904376744 
  659000   -5465.264183668478   -5465.264183668478   25416.323271125788  -31834.683315027240     953.095860232973 
  660000   -5496.291014728802   -5496.291014728802   25226.444702973127  -31835.652922073819    1112.917204371892 
  661000   -5556.779426278295   -5556.779426278295   25104.343364352073  -31837.305249936235    1176.182459305863 
  662000   -5587.542365611778   -5587.542365611778   25096.286979554985  -31840.237061657550    1156.407716490783 
  663000   -5512.857034348650   -5512.857034348650   25213.528479630972  -31834.608489833132    1108.222975853511 
  664000   -5535.319327678219   -5535.319327678219   25159.540469858890  -31837.035572656456    1142.175775119348 
  665000   -5486.792069228220   -5486.792069228220   25314.300792367598  -31833.945587052644    1032.852725456827 
  666000   -5500.209146498539   -5500.209146498539   25272.382460970010  -31835.714599347793    1063.122991879246 
  667000   -5545.966843292848   -5545.966843292848   25138.486298255470  -31837.827864480816    1153.374722932497 
  668000   -5606.426841467095   -5606.426841467095   25126.910571439468  -31838.279100224558    1104.941687317993 
  669000   -5575.052394713446   -5575.052394713446   25186.070388320659  -31838.959654209772    1077.836871175664 
  670000   -5512.843308950702   -5512.843308950702   25186.449310710443  -31835.654531290722    1136.361911629579 
  671000   -5482.939971065491   -5482.939971065491   25225.461563436231  -31835.697395920884    1127.295861419166 
  672000   -5511.443733502394   -5511.443733502394   25292.454662829914  -31835.313389189036    1031.414992856723 
  673000   -5487.605750921437   -5487.605750921437   25245.943094507798  -31835.902093819441    1102.353248390206 
  674000   -5481.850411033698   -5481.850411033698   25294.250140845132  -31834.440286959747    1058.339735080918 
  675000   -5584.079359512649   -5584.079359512649   25163.855217902994  -31837.435537454199    1089.500960038553 
[...]
 4838000   -5583.181084713393   -5583.181084713393   24904.784816308125  -31598.159022328462    1110.193121306949 
 4839000   -5501.624710711636   -5501.624710711636   24965.734795261276  -31585.564579195474    1118.205073222559 
 4840000   -5520.401488554387   -5520.401488554387   24943.143351850264  -31593.520684613628    1129.975844208979 
 4841000   -5510.866130307251   -5510.866130307251   24983.315484133858  -31592.077953609456    1097.896339168345 
 4842000   -5501.081923007794   -5501.081923007794   25038.511398753504  -31595.270204559678    1055.676882798378 
 4843000   -5550.062328496962   -5550.062328496962   24977.888626636734  -31589.895579552598    1061.944624418894 
 4844000   -5545.624850736247   -5545.624850736247   24960.057699050871  -31592.408321692379    1086.725771905260 
 4845000   -5565.988006656589   -5565.988006656589   24855.278927569649  -31597.158967816918    1175.892033590680 
 4846000   -5583.227250073971   -5583.227250073971   24816.868200572877  -31598.759526116701    1198.664075469860 
 4847000   -5529.531029307978   -5529.531029307978   25010.776235396610  -31598.678795498308    1058.371530793714 
 4848000   -5522.246357915894   -5522.246357915894   24959.215248304135  -31593.225157512854    1111.763551292824 
 4849000   -5594.270158053281   -5594.270158053281   24925.060383915938  -31593.462136765793    1074.131594796569 
 4850000   -5484.696134606595   -5484.696134606595   25000.956243896304  -31594.501927343081    1108.849548840184 
 4851000   -5505.751651588529   -5505.751651588529   24959.508803379384  -31593.208511488861    1127.948056520949 
 4852000   -5525.101163264168   -5525.101163264168   25004.875089939807  -31591.220998272416    1061.244745068434 
 4853000   -5508.285827942444   -5508.285827942444   25007.743247460359  -31594.551604278149    1078.522528875347 
 4854000   -5519.965497389632   -5519.965497389632   25034.502413609214  -31596.957740831331    1042.489829832486 
 4855000   -5525.718802636457   -5525.718802636457   25038.476905522984  -31592.006749262746    1027.811041103305 
 4856000   -5494.214852041612   -5494.214852041612   25011.703945946734  -31590.241811522359    1084.323013534015 
 4857000   -5566.934838830410   -5566.934838830410   24923.196631886167  -31591.640727932077    1101.509257215502 
 4858000   -5573.752788958685   -5573.752788958685   24832.598676921381  -31594.110430403583    1187.758964523517 
 4859000   -5504.803310223833   -5504.803310223833   24949.792171766181  -31595.505377709229    1140.909895719212 
 4860000   -5541.474594704330   -5541.474594704330   24990.738855005653  -31594.128531570637    1061.915081860654 
 4861000   -5570.389110009204   -5570.389110009204   24962.095521769770  -31596.228427675767    1063.743795896792 
 4862000   -5555.552029474169   -5555.552029474169   24971.114180923745  -31596.038730348759    1069.372519950842 
 4863000   -5544.123092499005   -5544.123092499005   24943.563411080162  -31593.716337997092    1106.029834417928 
 4864000   -5561.529700924631   -5561.529700924631   24895.306272448899  -31591.959402448079    1135.123429074551 
 4865000   -5478.928658962610   -5478.928658962610   24996.912424713712  -31595.864742687630    1120.023659011310 
 4866000   -5489.996407565712   -5489.996407565712   24952.395215052988  -31593.094165092734    1150.702542474038 
 4867000   -5550.754416710850   -5550.754416710850   25036.666708799094  -31596.658881638421    1009.237756128478 
 4868000   -5535.655138701535   -5535.655138701535   24998.333789258089  -31597.551819667737    1063.562891708114 
 4869000   -5515.752659390724   -5515.752659390724   25027.435465052760  -31592.709492515271    1049.521368071786 
 4870000   -5567.117227574727   -5567.117227574727   24948.439573187134  -31592.350363437727    1076.793562675868 
 4871000   -5539.093810318518   -5539.093810318518   24957.511360050165  -31592.536042166103    1095.930871797420 
 4872000   -5508.065099515905   -5508.065099515905   25015.303481540926  -31598.573052910648    1075.204471853818 
 4873000   -5503.816286452871   -5503.816286452871   24999.557529350503  -31593.405731274321    1090.031915470949 
 4874000   -5529.870837043276   -5529.870837043276   24983.074767022321  -31591.310477573290    1078.364873507699 
 4875000   -5467.021905342121   -5467.021905342121   25061.620504686485  -31594.967879388991    1066.325469360385 
 4876000   -5543.301903572410   -5543.301903572410   24970.868824009693  -31595.441864426528    1081.271136844427 
 4877000   -5559.098708893602   -5559.098708893602   24876.388659198681  -31590.212450235042    1154.725082142761 
 4878000   -5488.287709527736   -5488.287709527736   24981.862157922907  -31596.840056383106    1126.690188932467 
 4879000   -5490.053640670110   -5490.053640670110   24995.201628612744  -31587.594560478483    1102.339291195629 
 4880000   -5514.029839561746   -5514.029839561746   24972.327701690767  -31593.363983975007    1107.006442722499 
 4881000   -5458.812933097935   -5458.812933097935   25040.596338442170  -31591.152641151733    1091.743369611630 
 4882000   -5518.660393749884   -5518.660393749884   25037.979298218401  -31590.685815386703    1034.046123418416 
 4883000   -5479.351311275313   -5479.351311275313   25030.089828094962  -31593.535615230598    1084.094475860319 
 4884000   -5472.673644194889   -5472.673644194889   25022.055408747896  -31595.112239786751    1100.383186843967 
 4885000   -5526.010502475048   -5526.010502475048   24872.461156178724  -31595.928276141873    1197.456617488103 
 4886000   -5527.642314182809   -5527.642314182809   24994.764721145435  -31589.876262228758    1067.469226900512 
 4887000   -5563.814987926642   -5563.814987926642   24923.306911710497  -31591.563541479372    1104.441641842233 
 4888000   -5573.740677466372   -5573.740677466372   24893.752029642557  -31592.554003255642    1125.061296146708 
 4889000   -5561.353756901877   -5561.353756901877   24961.431670493192  -31595.729973087309    1072.944545692244 
 4890000   -5480.833703581691   -5480.833703581691   25036.952160632347  -31593.844634044603    1076.058769830561 
 4891000   -5504.316819846292   -5504.316819846292   25035.883726056738  -31594.385892984032    1054.185347081003 
 4892000   -5567.478787024262   -5567.478787024262   24919.625348509646  -31592.894092526611    1105.789956992706 
 4893000   -5523.713732667475   -5523.713732667475   24962.634416071818  -31595.052154380181    1108.704005640889 
 4894000   -5631.048615165873   -5631.048615165873   24831.432073171120  -31595.489236309739    1133.008547972742 
 4895000   -5570.502806203327   -5570.502806203327   24891.429017094135  -31596.037738095820    1134.105914798353 
 4896000   -5511.747261598397   -5511.747261598397   24955.382982218478  -31595.881447407450    1128.751203590573 
 4897000   -5534.666582952595   -5534.666582952595   24976.823914706074  -31593.690109179810    1082.199611521135 
 4898000   -5501.580195492381   -5501.580195492381   25012.656182508577  -31596.007937267721    1081.771559266767 
 4899000   -5541.308835389063   -5541.308835389063   24927.320707705185  -31594.634029756256    1126.004486662010 
 4900000   -5542.112591433539   -5542.112591433539   25035.607157424092  -31598.423109203894    1020.703360346261 
 4901000   -5484.843555170199   -5484.843555170199   25037.632353904752  -31595.269484473829    1072.793575398872 
 4902000   -5516.310003478451   -5516.310003478451   24948.518034753070  -31595.958855721503    1131.130817489982 
 4903000   -5579.656215816598   -5579.656215816598   24936.448317931099  -31595.606553675192    1079.502019927487 
 4904000   -5522.715842128880   -5522.715842128880   24899.990405650668  -31594.536048033788    1171.829800254233 
 4905000   -5492.712121360706   -5492.712121360706   25015.149768365191  -31592.155583031981    1084.293693306088 
 4906000   -5521.187033782793   -5521.187033782793   25023.305410341971  -31589.965560631550    1045.473116506791 
 4907000   -5503.504615486141   -5503.504615486141   25022.161184232093  -31595.134187991171    1069.468388272942 
 4908000   -5521.714031044190   -5521.714031044190   24966.496344710667  -31593.873162310083    1105.662786555226 
 4909000   -5494.928894341014   -5494.928894341014   25051.720597720858  -31597.545518354913    1050.896026293043 
 4910000   -5505.970213497989   -5505.970213497989   25028.525064073619  -31594.892000264259    1060.396722692652 
 4911000   -5528.278811150805   -5528.278811150805   24957.415671464296  -31597.998128996111    1112.303646381013 
 4912000   -5558.314328051027   -5558.314328051027   24922.587967699161  -31592.045245197776    1111.142949447593 
 4913000   -5552.861757539715   -5552.861757539715   24966.856513019360  -31599.137751744485    1079.419481185409 
 4914000   -5505.385613427690   -5505.385613427690   24973.603856999554  -31594.523963432344    1115.534493005103 
 4915000   -5554.252227052159   -5554.252227052159   25020.437407119032  -31596.824991848058    1022.135357676861 
 4916000   -5548.694285149693   -5548.694285149693   24947.848637689189  -31591.764342744114    1095.221419905234 
 4917000   -5507.645694513645   -5507.645694513645   24986.270791373801  -31592.875980902616    1098.959495015170 
 4918000   -5513.831462149315   -5513.831462149315   25016.316098562369  -31593.508461227786    1063.360900516103 
 4919000   -5542.372822347083   -5542.372822347083   24970.145941182986  -31595.416400884948    1082.897637354883 
 4920000   -5505.552992303932   -5505.552992303932   25015.677822631442  -31596.730049064125    1075.499234128752 
 4921000   -5516.519165793561   -5516.519165793561   25023.006240275230  -31597.106265503415    1057.580859434626 
 4922000   -5508.732308180934   -5508.732308180934   24964.071648825196  -31595.241647122264    1122.437690116136 
 4923000   -5503.518276312643   -5503.518276312643   24988.780001602951  -31593.273065035519    1100.974787119922 
 4924000   -5473.302601040461   -5473.302601040461   25084.376092114791  -31594.078923074896    1036.400229919646 
 4925000   -5517.547186155363   -5517.547186155363   24963.905804951377  -31592.338087030781    1110.885095924041 
 4926000   -5474.792294467250   -5474.792294467250   25057.967072723233  -31592.009395389159    1059.250028198673 
 4927000   -5555.537587756349   -5555.537587756349   24979.012156223973  -31591.387349703749    1056.837605723429 
 4928000   -5544.536494075295   -5544.536494075295   24949.700608162759  -31594.113267488221    1099.876165250167 
 4929000   -5507.776438621990   -5507.776438621990   25042.687604440918  -31594.440294543409    1043.976251480497 
 4930000   -5557.857191230178   -5557.857191230178   24903.366342322377  -31596.070954744613    1134.847421192054 
 4931000   -5564.891256844869   -5564.891256844869   24901.541347585749  -31592.609089183050    1126.176484752427 
 4932000   -5576.681398921020   -5576.681398921020   24879.039532581199  -31595.484245709875    1139.763314207652 
 4933000   -5578.761299685259   -5578.761299685259   24886.613169304594  -31593.353866423095    1127.979397433241 
 4934000   -5596.085649147113   -5596.085649147113   24899.753232817147  -31597.346610392215    1101.507728427956 
 4935000   -5566.809766779264   -5566.809766779264   24950.527240491811  -31594.308594681494    1076.971587410424 
 4936000   -5513.496215630879   -5513.496215630879   25034.687205927061  -31594.607149299252    1046.423727741308 
 4937000   -5606.701574165822   -5606.701574165822   24921.740572937262  -31596.942012753720    1068.499865650638 
 4938000   -5543.176764615986   -5543.176764615986   24902.252898982326  -31591.188896269578    1145.759232671266 
 4939000   -5528.906391448974   -5528.906391448974   24947.756001190526  -31593.759771130324    1117.097378490822 
 4940000   -5525.498535959745   -5525.498535959745   25024.880228455877  -31589.945605247067    1039.566840831448 
 4941000   -5543.593469051491   -5543.593469051491   24994.101083468282  -31594.321320759005    1056.626768239230 
 4942000   -5492.594390368398   -5492.594390368398   25035.445751342006  -31595.076958267058    1067.036816556652 
 4943000   -5595.244337896671   -5595.244337896671   24813.178870615353  -31594.136880674298    1185.713672162272 
 4944000   -5559.181472328779   -5559.181472328779   25001.068967398616  -31597.589246448813    1037.338806721414 
 4945000   -5561.728263255518   -5561.728263255518   24941.193359646226  -31596.160543434627    1093.238920532883 
 4946000   -5505.884017096567   -5505.884017096567   25035.379059391278  -31598.787229645630    1057.524153157783 
 4947000   -5507.309463582253   -5507.309463582253   25037.533814995597  -31595.182334603003    1050.339056025151 
 4948000   -5528.047252395823   -5528.047252395823   25010.173125768943  -31596.761684021836    1058.541305857070 
 4949000   -5533.093162148572   -5533.093162148572   24996.358690278372  -31593.010105050518    1063.558252623575 
 4950000   -5534.809146401301   -5534.809146401301   24945.259108509374  -31593.604081731708    1113.535826821037 
 4951000   -5541.710661535933   -5541.710661535933   24965.453015432355  -31595.977414390600    1088.813737422311 
 4952000   -5577.019962957711   -5577.019962957711   24873.462359647543  -31598.180871818986    1147.698549213733 
 4953000   -5596.174135798323   -5596.174135798323   24845.242953024084  -31595.510048356355    1154.092959533944 
 4954000   -5548.949965067171   -5548.949965067171   24902.099489365275  -31594.936630503595    1143.887176071152 
 4955000   -5556.079446588763   -5556.079446588763   24937.498020649557  -31596.807033579600    1103.229566341281 
 4956000   -5545.910609337763   -5545.910609337763   24888.632401518211  -31595.692555976060    1161.149545120078 
 4957000   -5564.360349428323   -5564.360349428323   24964.590454470439  -31595.704490222055    1066.753686323289 
 4958000   -5508.372736261153   -5508.372736261153   24954.495794269424  -31592.924684003770    1130.056153473194 
 4959000   -5517.166626237155   -5517.166626237155   24961.580036214415  -31590.547063712776    1111.800401261207 
 4960000   -5617.441935180395   -5617.441935180395   24875.963995555176  -31598.439219067281    1105.033288331713 
 4961000   -5548.072629901249   -5548.072629901249   24932.290161631259  -31594.572051849544    1114.209260317034 
 4962000   -5526.568777839351   -5526.568777839351   24944.345169270327  -31591.942405642065    1121.028458532390 
 4963000   -5529.163204081618   -5529.163204081618   24979.040556545529  -31596.960925236981    1088.757164609832 
 4964000   -5499.583024742136   -5499.583024742136   25031.894534537481  -31588.373689115029    1056.896129835410 
 4965000   -5485.718033823021   -5485.718033823021   25053.352253126126  -31592.644368510249    1053.574081561100 
 4966000   -5520.060081070169   -5520.060081070169   25015.512180698941  -31597.231666584710    1061.659404815605 
 4967000   -5512.879410022029   -5512.879410022029   24996.767222295151  -31591.848116069752    1082.201483752569 
 4968000   -5486.175036463828   -5486.175036463828   25015.132273697061  -31596.048354701077    1094.741044540193 
 4969000   -5554.868790061606   -5554.868790061606   24955.669278832884  -31594.720935419668    1084.182866525174 
 4970000   -5485.755517421603   -5485.755517421603   24974.169687422647  -31594.104922570150    1134.179717725902 
 4971000   -5571.080183941740   -5571.080183941740   24904.412113781607  -31591.773907759438    1116.281610036085 
 4972000   -5586.125202630927   -5586.125202630927   24808.091121043319  -31594.514635689407    1200.298312015164 
 4973000   -5581.245531922428   -5581.245531922428   24897.553164768873  -31592.795696965408    1113.997000274106 
 4974000   -5587.042438778713   -5587.042438778713   24877.364404667369  -31596.265963263595    1131.859119817516 
 4975000   -5542.946715241153   -5542.946715241153   24998.942411442265  -31598.164882569963    1056.275755886547 
 4976000   -5551.685890029192   -5551.685890029192   24917.659754558961  -31593.601076239040    1124.255431650889 
 4977000   -5557.036520561014   -5557.036520561014   24957.865500411532  -31597.755050050895    1082.853029078350 
 4978000   -5548.003928139300   -5548.003928139300   24962.489481022418  -31593.976461800918    1083.483052639197 
 4979000   -5500.521676869819   -5500.521676869819   25017.720249957514  -31596.229334236301    1077.987407408969 
 4980000   -5486.196065179582   -5486.196065179582   25015.929624407345  -31589.328663442284    1087.202973855359 
 4981000   -5566.318319382961   -5566.318319382961   24934.436330294357  -31595.213579768973    1094.458930091657 
 4982000   -5548.660488847363   -5548.660488847363   24982.187711398736  -31595.719074969293    1064.870874723190 
 4983000   -5540.059106986700   -5540.059106986700   24956.149685123179  -31591.891149191542    1095.682357081659 
 4984000   -5607.818126043763   -5607.818126043763   24878.160927691351  -31594.098175129035    1108.119121393922 
 4985000   -5475.364670182444   -5475.364670182444   25046.455902311383  -31589.240638999177    1067.420066505351 
 4986000   -5571.656565310033   -5571.656565310033   24848.183106635723  -31591.653605951040    1171.813934005279 
 4987000   -5563.783943243267   -5563.783943243267   24905.800482004524  -31595.230019055860    1125.645593808069 
 4988000   -5545.069496082266   -5545.069496082266   24913.968326734845  -31590.119991833304    1131.082169016199 
 4989000   -5518.848756693558   -5518.848756693558   25051.117569555812  -31593.702071180975    1023.735744931602 
 4990000   -5537.202984509291   -5537.202984509291   24991.191432276501  -31592.922059281962    1064.527642496168 
 4991000   -5580.640174500830   -5580.640174500830   24906.482726163740  -31594.823882725614    1107.700982061043 
 4992000   -5551.735620445936   -5551.735620445936   24958.913909587187  -31592.355772009934    1081.706241976813 
 4993000   -5547.203716617041   -5547.203716617041   24978.948779711773  -31594.473695630670    1068.321199301861 
 4994000   -5546.108726297589   -5546.108726297589   24927.233151720677  -31593.888277721879    1120.546399703610 
 4995000   -5522.597317562970   -5522.597317562970   24966.465294134341  -31598.050183145180    1108.987571447869 
 4996000   -5541.826894980040   -5541.826894980040   24966.293545416098  -31595.516417278530    1087.395976882389 
 4997000   -5549.747325589011   -5549.747325589011   24968.265515040806  -31596.498585243880    1078.485744614059 
 4998000   -5556.923172749932   -5556.923172749932   24903.508959821665  -31588.549479269834    1128.117346698236 
 4999000   -5518.721546728997   -5518.721546728997   25015.987662137872  -31597.762045748528    1063.052836881657 
 5000000   -5513.888287993646   -5513.888287993646   25056.903284153777  -31597.044430169743    1026.252858022315 
Loop time of 29.9285 on 8 procs for 5001 steps with 1503 atoms

Performance: 14.437 ns/day, 1.662 hours/ns, 167.098 timesteps/s
98.9% CPU use with 8 MPI tasks x 1 OpenMP threads

MPI task timing breakdown:
Section |  min time  |  avg time  |  max time  |%varavg| %total
---------------------------------------------------------------
Pair    | 0          | 0          | 0          |   0.0 |  0.00
Bond    | 0          | 0          | 0          |   0.0 |  0.00
Kspace  | 0          | 0          | 0          |   0.0 |  0.00
Neigh   | 0          | 0          | 0          |   0.0 |  0.00
Comm    | 0          | 0          | 0          |   0.0 |  0.00
Output  | 0          | 0          | 0          |   0.0 |  0.00
Modify  | 0          | 0          | 0          |   0.0 |  0.00
Other   |            | 29.93      |            |       |100.00

Nlocal:    187.875 ave 196 max 179 min
Histogram: 1 0 1 1 0 1 1 2 0 1
Nghost:    4512.5 ave 4563 max 4467 min
Histogram: 1 0 2 1 0 2 0 1 0 1
Neighs:    66412.4 ave 69578 max 63099 min
Histogram: 1 0 0 1 2 2 1 0 0 1

Total # of neighbors = 531299
Ave neighs/atom = 353.492
Ave special neighs/atom = 2
Neighbor list builds = 0
Dangerous builds = 0
Total wall time: 0:01:30
