LAMMPS (3 Mar 2020)
  using 1 OpenMP thread(s) per MPI task
Reading data file ...
  orthogonal box = (0 0 0) to (24 24 24)
  2 by 2 by 2 MPI processor grid
  reading atoms ...
  1503 atoms
  scanning bonds ...
  2 = max bonds/atom
  scanning angles ...
  1 = max angles/atom
  reading bonds ...
  1002 bonds
  reading angles ...
  501 angles
Finding 1-2 1-3 1-4 neighbors ...
  special bond factors lj:   0          0          0         
  special bond factors coul: 0          0          0         
  2 = max # of 1-2 neighbors
  1 = max # of 1-3 neighbors
  1 = max # of 1-4 neighbors
  2 = max # of special neighbors
  special bonds CPU = 0.00104587 secs
  read_data CPU = 0.00893766 secs
Setting atom values ...
  1 settings made for charge
Setting atom values ...
  2 settings made for charge
WARNING: Using 'neigh_modify every 1 delay 0 check yes' setting during minimization (src/min.cpp:190)
PPPM initialization ...
  using 12-bit tables for long-range coulomb (src/kspace.cpp:332)
  G vector (1/distance) = 0.315108
  grid = 24 24 24
  stencil order = 5
  estimated absolute RMS force accuracy = 0.00171352
  estimated relative force accuracy = 5.16021e-06
  using double precision MKL FFT
  3d grid and FFT values/proc = 6859 1728
Neighbor list info ...
  update every 1 steps, delay 0 steps, check yes
  max neighbors/atom: 2000, page size: 100000
  master list distance cutoff = 12
  ghost atom cutoff = 12
  binsize = 6, bins = 4 4 4
  3 neighbor lists, perpetual/occasional/extra = 3 0 0
  (1) pair lj/cut/coul/long, perpetual, skip from (3)
      attributes: half, newton on
      pair build: skip
      stencil: none
      bin: none
  (2) pair lj/cut/coul/long/soft, perpetual, skip from (3)
      attributes: half, newton on
      pair build: skip
      stencil: none
      bin: none
  (3) neighbor class addition, perpetual
      attributes: half, newton on
      pair build: half/bin/newton
      stencil: half/bin/3d/newton
      bin: standard
Setting up cg style minimization ...
  Unit style    : real
  Current step  : 0
Per MPI rank memory allocation (min/avg/max) = 10.15 | 10.15 | 10.16 Mbytes
Step Temp E_pair E_mol TotEng Press 
       0            0   -245.62916   0.56510211   -245.06406    17987.903 
      71            0   -6830.0123    370.58604   -6459.4262   -4006.3854 
Loop time of 0.260493 on 8 procs for 71 steps with 1503 atoms

98.1% CPU use with 8 MPI tasks x 1 OpenMP threads

Minimization stats:
  Stopping criterion = energy tolerance
  Energy initial, next-to-last, final = 
        -245.064057311     -6454.93754482     -6459.42620907
  Force two-norm initial, final = 682.101 66.5774
  Force max component initial, final = 40.0314 11.5153
  Final line search alpha, max atom move = 0.00357782 0.0411996
  Iterations, force evaluations = 71 121

MPI task timing breakdown:
Section |  min time  |  avg time  |  max time  |%varavg| %total
---------------------------------------------------------------
Pair    | 0.17863    | 0.18118    | 0.18556    |   0.5 | 69.55
Bond    | 0.0006202  | 0.00066944 | 0.00074292 |   0.0 |  0.26
Kspace  | 0.054919   | 0.059366   | 0.062032   |   0.9 | 22.79
Neigh   | 0.0043247  | 0.0043329  | 0.0043457  |   0.0 |  1.66
Comm    | 0.011901   | 0.012095   | 0.012349   |   0.1 |  4.64
Output  | 0          | 0          | 0          |   0.0 |  0.00
Modify  | 0          | 0          | 0          |   0.0 |  0.00
Other   |            | 0.002845   |            |       |  1.09

Nlocal:    187.875 ave 192 max 185 min
Histogram: 1 2 1 0 1 1 0 1 0 1
Nghost:    4884.75 ave 4904 max 4876 min
Histogram: 4 0 1 0 0 2 0 0 0 1
Neighs:    72746.1 ave 75492 max 70424 min
Histogram: 1 0 0 1 3 2 0 0 0 1

Total # of neighbors = 581969
Ave neighs/atom = 387.205
Ave special neighs/atom = 2
Neighbor list builds = 3
Dangerous builds = 0
Finding SHAKE clusters ...
  0 = # of size 2 clusters
  0 = # of size 3 clusters
  0 = # of size 4 clusters
  501 = # of frozen angles
  find clusters CPU = 0.000239085 secs
PPPM initialization ...
  using 12-bit tables for long-range coulomb (src/kspace.cpp:332)
  G vector (1/distance) = 0.315108
  grid = 24 24 24
  stencil order = 5
  estimated absolute RMS force accuracy = 0.00171352
  estimated relative force accuracy = 5.16021e-06
  using double precision MKL FFT
  3d grid and FFT values/proc = 6859 1728
Neighbor list info ...
  update every 1 steps, delay 10 steps, check yes
  max neighbors/atom: 2000, page size: 100000
  master list distance cutoff = 12
  ghost atom cutoff = 12
  binsize = 6, bins = 4 4 4
  3 neighbor lists, perpetual/occasional/extra = 3 0 0
  (1) pair lj/cut/coul/long, perpetual, skip from (3)
      attributes: half, newton on
      pair build: skip
      stencil: none
      bin: none
  (2) pair lj/cut/coul/long/soft, perpetual, skip from (3)
      attributes: half, newton on
      pair build: skip
      stencil: none
      bin: none
  (3) neighbor class addition, perpetual
      attributes: half, newton on
      pair build: half/bin/newton
      stencil: half/bin/3d/newton
      bin: standard
Setting up Verlet run ...
  Unit style    : real
  Current step  : 71
  Time step     : 1
Per MPI rank memory allocation (min/avg/max) = 9.904 | 9.905 | 9.906 Mbytes
Step Temp TotEng PotEng E_bond E_angle E_dihed E_coul E_long E_vdwl 
      71     300.000000   -5934.874995   -6830.012253       0.000000       0.000000       0.000000   23613.524764  -31846.398709    1402.861693 
   10000     309.026660   -4680.370535   -5602.441458       0.000000       0.000000       0.000000   25047.970914  -31836.961450    1186.549079 
   20000     297.691145   -4625.544164   -5513.792283       0.000000       0.000000       0.000000   25184.049877  -31832.467641    1134.625481 
   30000     293.137166   -4628.935311   -5503.595307       0.000000       0.000000       0.000000   25220.013599  -31836.125230    1112.516324 
   40000     291.646523   -4666.073868   -5536.286099       0.000000       0.000000       0.000000   25211.308168  -31838.548171    1090.953905 
   50000     302.706462   -4624.867706   -5528.080482       0.000000       0.000000       0.000000   25203.908720  -31839.623690    1107.634489 
   60000     305.523769   -4591.478515   -5503.097546       0.000000       0.000000       0.000000   25261.048712  -31835.291839    1071.145581 
   70000     307.917071   -4607.936940   -5526.697083       0.000000       0.000000       0.000000   25210.909248  -31835.491911    1097.885580 
   80000     305.120252   -4667.496983   -5577.912001       0.000000       0.000000       0.000000   25161.401357  -31838.557898    1099.244539 
   90000     312.232193   -4626.170970   -5557.806533       0.000000       0.000000       0.000000   25255.283659  -31839.675597    1026.585405 
  100000     306.033311   -4705.258472   -5618.397869       0.000000       0.000000       0.000000   25131.698969  -31840.361224    1090.264386 
  110000     297.544604   -4683.366167   -5571.177037       0.000000       0.000000       0.000000   25178.552726  -31838.349333    1088.619570 
  120000     290.201415   -4693.464316   -5559.364645       0.000000       0.000000       0.000000   25166.861772  -31834.718597    1108.492179 
  130000     305.210025   -4639.073348   -5549.756232       0.000000       0.000000       0.000000   25247.162460  -31838.152392    1041.233700 
  140000     299.198089   -4696.346100   -5589.090624       0.000000       0.000000       0.000000   25151.987622  -31835.106673    1094.028427 
  150000     292.007099   -4645.572421   -5516.860535       0.000000       0.000000       0.000000   25184.057312  -31834.148599    1133.230752 
  160000     285.096907   -4731.595310   -5582.264857       0.000000       0.000000       0.000000   25205.722040  -31839.660338    1051.673441 
  170000     302.144449   -4597.559091   -5499.094937       0.000000       0.000000       0.000000   25291.166640  -31835.214871    1044.953294 
  180000     297.202373   -4600.912621   -5487.702344       0.000000       0.000000       0.000000   25269.925230  -31836.480246    1078.852671 
  190000     297.225705   -4644.398668   -5531.258009       0.000000       0.000000       0.000000   25259.881255  -31839.042196    1047.902933 
  200000     297.750314   -4711.767157   -5600.191823       0.000000       0.000000       0.000000   25135.798292  -31838.522377    1102.532262 
  210000     305.635911   -4625.978634   -5537.932271       0.000000       0.000000       0.000000   25213.741000  -31839.156839    1087.483568 
  220000     307.590781   -4658.010286   -5575.796846       0.000000       0.000000       0.000000   25146.495512  -31837.513448    1115.221090 
  230000     302.806514   -4672.884377   -5576.395686       0.000000       0.000000       0.000000   25118.983929  -31833.428295    1138.048680 
  240000     304.649959   -4678.986616   -5587.998378       0.000000       0.000000       0.000000   25124.311263  -31836.649718    1124.340077 
  250000     297.463069   -4650.445240   -5538.012825       0.000000       0.000000       0.000000   25148.684634  -31834.022080    1147.324621 
  260000     296.847576   -4689.869034   -5575.600119       0.000000       0.000000       0.000000   25151.649569  -31840.626151    1113.376462 
  270000     295.637193   -4687.214968   -5569.334523       0.000000       0.000000       0.000000   25127.186938  -31835.180550    1138.659089 
  280000     306.619420   -4657.600772   -5572.488993       0.000000       0.000000       0.000000   25110.209371  -31836.393799    1153.695436 
  290000     305.467940   -4637.023812   -5548.476260       0.000000       0.000000       0.000000   25149.819225  -31837.678030    1139.382545 
  300000     289.418717   -4686.393375   -5549.958298       0.000000       0.000000       0.000000   25217.278355  -31843.244531    1076.007877 
  310000     289.874361   -4626.137905   -5491.062373       0.000000       0.000000       0.000000   25260.882143  -31831.614094    1079.669578 
  320000     297.280229   -4647.919241   -5534.941271       0.000000       0.000000       0.000000   25144.804402  -31835.088953    1155.343280 
  330000     310.666777   -4644.959173   -5571.923862       0.000000       0.000000       0.000000   25165.917912  -31839.274912    1101.433137 
  340000     301.887868   -4650.507023   -5551.277284       0.000000       0.000000       0.000000   25186.282650  -31839.767549    1102.207615 
  350000     281.520154   -4692.977251   -5532.974513       0.000000       0.000000       0.000000   25217.109755  -31833.207854    1083.123585 
  360000     299.105796   -4647.184837   -5539.653978       0.000000       0.000000       0.000000   25117.316242  -31838.349841    1181.379621 
  370000     288.734060   -4604.433095   -5465.955143       0.000000       0.000000       0.000000   25299.272720  -31841.882572    1076.654709 
  380000     293.462957   -4697.209001   -5572.841091       0.000000       0.000000       0.000000   25182.811435  -31832.228983    1076.576457 
  390000     293.555346   -4657.878272   -5533.786029       0.000000       0.000000       0.000000   25213.743536  -31835.292430    1087.762865 
  400000     304.702641   -4561.935845   -5471.104801       0.000000       0.000000       0.000000   25303.865838  -31839.353494    1064.382854 
  410000     310.437562   -4638.123435   -5564.404196       0.000000       0.000000       0.000000   25094.701733  -31835.668572    1176.562643 
  420000     290.814861   -4722.215039   -5589.945764       0.000000       0.000000       0.000000   25124.027591  -31835.719205    1121.745850 
  430000     291.861908   -4642.594657   -5513.449552       0.000000       0.000000       0.000000   25160.444550  -31834.976882    1161.082780 
  440000     292.796829   -4655.429061   -5529.073565       0.000000       0.000000       0.000000   25171.902879  -31836.794564    1135.818120 
  450000     304.138551   -4582.563309   -5490.049139       0.000000       0.000000       0.000000   25256.034655  -31835.332878    1089.249084 
  460000     297.116167   -4650.852090   -5537.384594       0.000000       0.000000       0.000000   25182.972307  -31838.364096    1118.007195 
  470000     290.277672   -4739.563242   -5605.691108       0.000000       0.000000       0.000000   25120.191758  -31840.897762    1115.014895 
  480000     301.398690   -4590.016307   -5489.326963       0.000000       0.000000       0.000000   25326.307426  -31840.821171    1025.186782 
  490000     294.071100   -4702.535408   -5579.982067       0.000000       0.000000       0.000000   25192.430120  -31838.972684    1066.560497 
  500000     310.303536   -4609.927148   -5535.808001       0.000000       0.000000       0.000000   25133.577379  -31835.736552    1166.351171 
  510000     302.660419   -4670.349733   -5573.425126       0.000000       0.000000       0.000000   25233.934864  -31837.129693    1029.769703 
  520000     302.011493   -4611.804717   -5512.943850       0.000000       0.000000       0.000000   25268.066703  -31838.645403    1057.634850 
  530000     302.104067   -4666.208999   -5567.624352       0.000000       0.000000       0.000000   25112.652875  -31835.866015    1155.588789 
  540000     297.929105   -4639.942468   -5528.900608       0.000000       0.000000       0.000000   25200.167317  -31838.159873    1109.091949 
  550000     289.518759   -4705.882845   -5569.746272       0.000000       0.000000       0.000000   25161.629585  -31834.561112    1103.185256 
  560000     313.917858   -4667.349682   -5604.014919       0.000000       0.000000       0.000000   25222.926740  -31841.604180    1014.662521 
  570000     296.078892   -4695.197106   -5578.634598       0.000000       0.000000       0.000000   25151.373306  -31836.536378    1106.528474 
  580000     308.400508   -4580.666174   -5500.868790       0.000000       0.000000       0.000000   25285.611616  -31834.240445    1047.760039 
  590000     309.412138   -4583.355846   -5506.576956       0.000000       0.000000       0.000000   25286.563605  -31839.683069    1046.542507 
  600000     305.144628   -4614.247051   -5524.734803       0.000000       0.000000       0.000000   25207.531679  -31838.233251    1105.966769 
  610000     294.527336   -4640.766985   -5519.574957       0.000000       0.000000       0.000000   25268.869567  -31833.235614    1044.791090 
  620000     305.046645   -4641.970190   -5552.165582       0.000000       0.000000       0.000000   25211.250511  -31839.393636    1075.977542 
  630000     302.562048   -4588.665870   -5491.447744       0.000000       0.000000       0.000000   25228.147972  -31836.321016    1116.725300 
  640000     301.302849   -4666.930562   -5565.955249       0.000000       0.000000       0.000000   25219.923278  -31837.239370    1051.360844 
  650000     301.918303   -4625.212251   -5526.073323       0.000000       0.000000       0.000000   25202.899205  -31837.374379    1108.401851 
  660000     299.992323   -4643.465780   -5538.580132       0.000000       0.000000       0.000000   25186.332953  -31832.963202    1108.050118 
  670000     303.621921   -4640.959205   -5546.903519       0.000000       0.000000       0.000000   25197.526009  -31839.768591    1095.339063 
  680000     307.007984   -4616.276300   -5532.323916       0.000000       0.000000       0.000000   25248.898758  -31837.172279    1055.949605 
  690000     296.502642   -4706.799255   -5591.501127       0.000000       0.000000       0.000000   25066.298328  -31839.784791    1181.985336 
  700000     297.505035   -4600.482259   -5488.175064       0.000000       0.000000       0.000000   25245.076919  -31837.172424    1103.920442 
  710000     303.110683   -4647.926183   -5552.345069       0.000000       0.000000       0.000000   25174.905812  -31837.649999    1110.399119 
  720000     295.464811   -4589.210167   -5470.815371       0.000000       0.000000       0.000000   25277.633477  -31831.154056    1082.705208 
  730000     295.445364   -4707.230943   -5588.778121       0.000000       0.000000       0.000000   25147.058200  -31837.035977    1101.199655 
  740000     289.662512   -4646.146306   -5510.438661       0.000000       0.000000       0.000000   25205.501077  -31838.433122    1122.493384 
  750000     298.521663   -4610.106601   -5500.832810       0.000000       0.000000       0.000000   25295.447153  -31835.559638    1039.279675 
  760000     316.069053   -4496.181570   -5439.265521       0.000000       0.000000       0.000000   25281.690385  -31834.283226    1113.327320 
  770000     283.238242   -4636.918357   -5482.042036       0.000000       0.000000       0.000000   25258.797018  -31840.710506    1099.871452 
  780000     304.463281   -4551.354741   -5459.809495       0.000000       0.000000       0.000000   25330.400104  -31835.180617    1044.971018 
  790000     300.398170   -4666.443979   -5562.769294       0.000000       0.000000       0.000000   25144.163752  -31838.897287    1131.964241 
  800000     299.726483   -4584.313884   -5478.635025       0.000000       0.000000       0.000000   25205.108102  -31836.045335    1152.302208 
  810000     307.977976   -4628.545992   -5547.487862       0.000000       0.000000       0.000000   25260.142514  -31837.243740    1029.613364 
  820000     305.727637   -4600.908739   -5513.136068       0.000000       0.000000       0.000000   25198.927267  -31835.286096    1123.222761 
  830000     295.013929   -4684.675992   -5564.935856       0.000000       0.000000       0.000000   25197.252214  -31839.238154    1077.050084 
  840000     310.021947   -4591.792363   -5516.833015       0.000000       0.000000       0.000000   25233.222117  -31840.615902    1090.560770 
  850000     295.724698   -4635.708979   -5518.089629       0.000000       0.000000       0.000000   25222.900046  -31834.027367    1093.037691 
  860000     297.744896   -4677.398244   -5565.806743       0.000000       0.000000       0.000000   25191.069997  -31835.156633    1078.279893 
  870000     293.817779   -4682.873715   -5559.564519       0.000000       0.000000       0.000000   25171.326896  -31837.132856    1106.241441 
  880000     305.345832   -4622.322257   -5533.410359       0.000000       0.000000       0.000000   25204.154575  -31832.444445    1094.879511 
  890000     287.297939   -4636.085878   -5493.322841       0.000000       0.000000       0.000000   25251.100756  -31837.310243    1092.886645 
  900000     305.074280   -4637.053573   -5547.331421       0.000000       0.000000       0.000000   25187.218675  -31839.987852    1105.437755 
  910000     297.824753   -4705.473681   -5594.120456       0.000000       0.000000       0.000000   25158.225792  -31838.734177    1086.387930 
  920000     293.482476   -4658.647511   -5534.337841       0.000000       0.000000       0.000000   25202.242343  -31841.602591    1105.022407 
  930000     303.464282   -4639.037398   -5544.511348       0.000000       0.000000       0.000000   25224.355043  -31837.871876    1069.005485 
  940000     286.832278   -4652.978535   -5508.826066       0.000000       0.000000       0.000000   25213.253237  -31837.165111    1115.085809 
  950000     292.640649   -4681.743543   -5554.922036       0.000000       0.000000       0.000000   25183.891780  -31835.979427    1097.165611 
  960000     300.924495   -4568.896578   -5466.792337       0.000000       0.000000       0.000000   25338.408180  -31834.604468    1029.403952 
  970000     292.804192   -4588.809567   -5462.476040       0.000000       0.000000       0.000000   25278.450050  -31836.177619    1095.251529 
  980000     301.510818   -4662.769591   -5562.414812       0.000000       0.000000       0.000000   25199.560588  -31837.567568    1075.592167 
  990000     301.731108   -4684.433971   -5584.736493       0.000000       0.000000       0.000000   25140.264321  -31834.407396    1109.406581 
 1000000     298.563580   -4666.091010   -5556.942291       0.000000       0.000000       0.000000   25173.122991  -31833.872834    1103.807552 
 1000071     297.499583   -4696.071276   -5583.747812       0.000000       0.000000       0.000000   25155.901900  -31840.012755    1100.363042 
Loop time of 1960.59 on 8 procs for 1000000 steps with 1503 atoms

Performance: 44.068 ns/day, 0.545 hours/ns, 510.051 timesteps/s
99.2% CPU use with 8 MPI tasks x 1 OpenMP threads

MPI task timing breakdown:
Section |  min time  |  avg time  |  max time  |%varavg| %total
---------------------------------------------------------------
Pair    | 980.41     | 985.43     | 992.72     |  12.3 | 50.26
Bond    | 0.2768     | 0.30753    | 0.34184    |   3.5 |  0.02
Kspace  | 522.51     | 529.92     | 534.35     |  16.7 | 27.03
Neigh   | 70.349     | 70.396     | 70.458     |   0.5 |  3.59
Comm    | 90.682     | 91.763     | 94.543     |  11.9 |  4.68
Output  | 0.0040969  | 0.0044599  | 0.006907   |   1.4 |  0.00
Modify  | 266.89     | 276.09     | 277.8      |  21.0 | 14.08
Other   |            | 6.675      |            |       |  0.34

Nlocal:    187.875 ave 198 max 177 min
Histogram: 1 2 0 0 1 0 1 1 0 2
Nghost:    4705.5 ave 4761 max 4658 min
Histogram: 1 0 1 1 2 2 0 0 0 1
Neighs:    68845.6 ave 72028 max 65577 min
Histogram: 3 0 0 0 1 0 0 1 1 2

Total # of neighbors = 550765
Ave neighs/atom = 366.444
Ave special neighs/atom = 2
Neighbor list builds = 43351
Dangerous builds = 0
PPPM initialization ...
  using 12-bit tables for long-range coulomb (src/kspace.cpp:332)
  G vector (1/distance) = 0.313572
  grid = 24 24 24
  stencil order = 5
  estimated absolute RMS force accuracy = 0.00182716
  estimated relative force accuracy = 5.50243e-06
  using double precision MKL FFT
  3d grid and FFT values/proc = 6859 1728
Neighbor list info ...
  update every 1 steps, delay 10 steps, check yes
  max neighbors/atom: 2000, page size: 100000
  master list distance cutoff = 12
  ghost atom cutoff = 12
  binsize = 6, bins = 5 5 5
  3 neighbor lists, perpetual/occasional/extra = 3 0 0
  (1) pair lj/cut/coul/long, perpetual, skip from (3)
      attributes: half, newton on
      pair build: skip
      stencil: none
      bin: none
  (2) pair lj/cut/coul/long/soft, perpetual, skip from (3)
      attributes: half, newton on
      pair build: skip
      stencil: none
      bin: none
  (3) neighbor class addition, perpetual
      attributes: half, newton on
      pair build: half/bin/newton
      stencil: half/bin/3d/newton
      bin: standard
Setting up Verlet run ...
  Unit style    : real
  Current step  : 0
  Time step     : 1
Per MPI rank memory allocation (min/avg/max) = 10.91 | 10.91 | 10.91 Mbytes
Step Temp TotEng PotEng E_bond E_angle E_dihed E_coul E_long E_vdwl 
       0     297.499583   -4696.069924   -5583.746461       0.000000       0.000000       0.000000   25001.032609  -31685.142112    1100.363042 
   10000     279.533568   -4695.280208   -5529.349912       0.000000       0.000000       0.000000   25016.965179  -31682.321465    1136.006373 
   20000     302.545506   -4692.273678   -5595.006192       0.000000       0.000000       0.000000   24970.669353  -31685.113585    1119.438039 
   30000     307.928995   -4655.250258   -5574.045978       0.000000       0.000000       0.000000   24945.999319  -31679.050251    1159.004953 
   40000     301.994149   -4639.387674   -5540.475056       0.000000       0.000000       0.000000   25059.600164  -31682.013147    1081.937927 
   50000     306.019425   -4622.381307   -5535.479271       0.000000       0.000000       0.000000   25129.180171  -31680.078932    1015.419490 
   60000     291.353412   -4659.497877   -5528.835526       0.000000       0.000000       0.000000   25105.800054  -31678.626247    1043.990668 
   70000     302.883974   -4610.086537   -5513.828971       0.000000       0.000000       0.000000   25025.559305  -31685.679453    1146.291177 
   80000     304.767298   -4613.463624   -5522.825501       0.000000       0.000000       0.000000   25053.979959  -31681.201326    1104.395866 
   90000     310.673644   -4595.845651   -5522.830831       0.000000       0.000000       0.000000   25055.240234  -31679.925891    1101.854825 
  100000     292.452695   -4662.583323   -5535.201002       0.000000       0.000000       0.000000   25058.749586  -31682.707037    1088.756449 
  110000     299.268496   -4642.577645   -5535.532247       0.000000       0.000000       0.000000   25029.371186  -31683.896318    1118.992886 
  120000     295.116879   -4612.850539   -5493.417585       0.000000       0.000000       0.000000   25107.045549  -31681.225905    1080.762771 
  130000     302.750217   -4637.305205   -5540.648535       0.000000       0.000000       0.000000   25024.978440  -31679.442848    1113.815872 
  140000     285.367726   -4720.427336   -5571.904950       0.000000       0.000000       0.000000   24957.420157  -31684.878260    1155.553153 
  150000     292.290932   -4653.941332   -5526.076344       0.000000       0.000000       0.000000   25020.487509  -31681.469222    1134.905369 
  160000     303.495486   -4626.995916   -5532.562973       0.000000       0.000000       0.000000   25151.187478  -31682.241160     998.490710 
  170000     300.036469   -4644.094766   -5539.340840       0.000000       0.000000       0.000000   25008.032840  -31681.623876    1134.250195 
  180000     294.046854   -4651.218414   -5528.592730       0.000000       0.000000       0.000000   25088.901523  -31683.577176    1066.082923 
  190000     291.829699   -4647.744178   -5518.502968       0.000000       0.000000       0.000000   25086.580631  -31684.955266    1079.871667 
  200000     301.717328   -4634.959573   -5535.220979       0.000000       0.000000       0.000000   25081.019830  -31683.545448    1067.304639 
  210000     288.498110   -4636.515954   -5497.333977       0.000000       0.000000       0.000000   25127.774969  -31678.197713    1053.088767 
  220000     299.813728   -4606.749751   -5501.331212       0.000000       0.000000       0.000000   25138.186472  -31681.521655    1042.003970 
  230000     296.148135   -4573.836574   -5457.480673       0.000000       0.000000       0.000000   25142.330024  -31682.561040    1082.750344 
  240000     292.466171   -4722.369369   -5595.027258       0.000000       0.000000       0.000000   25061.142943  -31682.967991    1026.797790 
  250000     290.788407   -4616.877094   -5484.528885       0.000000       0.000000       0.000000   25100.764488  -31685.601598    1100.308225 
  260000     294.125543   -4673.664886   -5551.273993       0.000000       0.000000       0.000000   25032.579976  -31686.105102    1102.251132 
  270000     302.585555   -4628.280701   -5531.132715       0.000000       0.000000       0.000000   25129.904220  -31683.650878    1022.613943 
  280000     301.475352   -4594.855757   -5494.395157       0.000000       0.000000       0.000000   25118.973355  -31680.925535    1067.557024 
  290000     290.517685   -4627.437559   -5494.281573       0.000000       0.000000       0.000000   25116.195719  -31684.441912    1073.964620 
  300000     293.561932   -4627.972250   -5503.899658       0.000000       0.000000       0.000000   25084.890069  -31687.056710    1098.266983 
  310000     304.583199   -4633.828071   -5542.640636       0.000000       0.000000       0.000000   25128.150153  -31685.020543    1014.229755 
  320000     306.028783   -4618.165679   -5531.291566       0.000000       0.000000       0.000000   24979.579805  -31684.297322    1173.425951 
  330000     292.087041   -4671.340880   -5542.867523       0.000000       0.000000       0.000000   25040.979292  -31681.564955    1097.718140 
  340000     301.257474   -4622.249621   -5521.138920       0.000000       0.000000       0.000000   25086.655397  -31681.675285    1073.880968 
  350000     302.848139   -4629.744964   -5533.380472       0.000000       0.000000       0.000000   25118.868060  -31681.676602    1029.428069 
  360000     294.624910   -4604.854910   -5483.954023       0.000000       0.000000       0.000000   25192.803946  -31685.083574    1008.325605 
  370000     301.216502   -4646.998144   -5545.765188       0.000000       0.000000       0.000000   25027.439563  -31681.924453    1108.719702 
  380000     314.910280   -4615.146871   -5554.773286       0.000000       0.000000       0.000000   25079.078045  -31685.448525    1051.597194 
  390000     310.373267   -4643.195698   -5569.284616       0.000000       0.000000       0.000000   25069.103877  -31680.596845    1042.208352 
  400000     300.257504   -4646.423013   -5542.328610       0.000000       0.000000       0.000000   25067.856476  -31683.395169    1073.210083 
  410000     297.008486   -4611.142935   -5497.354141       0.000000       0.000000       0.000000   25036.250997  -31681.822555    1148.217417 
  420000     312.863851   -4541.728648   -5475.248946       0.000000       0.000000       0.000000   25092.143365  -31680.025631    1112.633319 
  430000     301.726367   -4691.196167   -5591.484545       0.000000       0.000000       0.000000   25018.197959  -31682.859014    1073.176510 
  440000     307.056472   -4611.645595   -5527.837890       0.000000       0.000000       0.000000   25047.053784  -31680.787380    1105.895706 
  450000     299.604724   -4706.180439   -5600.138275       0.000000       0.000000       0.000000   24972.722668  -31682.568388    1109.707446 
  460000     296.492227   -4634.225566   -5518.896364       0.000000       0.000000       0.000000   25090.273692  -31685.182834    1076.012778 
  470000     298.839949   -4612.124284   -5503.800194       0.000000       0.000000       0.000000   25061.010292  -31683.553795    1118.743310 
  480000     306.678952   -4636.816586   -5551.882440       0.000000       0.000000       0.000000   25000.965855  -31685.702699    1132.854404 
  490000     306.914856   -4644.557875   -5560.327618       0.000000       0.000000       0.000000   24978.277238  -31685.937735    1147.332879 
  500000     294.047053   -4710.570058   -5587.944967       0.000000       0.000000       0.000000   25046.354407  -31688.190263    1053.890889 
  510000     299.767701   -4639.627035   -5534.071163       0.000000       0.000000       0.000000   25066.603100  -31683.772478    1083.098216 
  520000     304.330267   -4578.422625   -5486.480494       0.000000       0.000000       0.000000   25152.130146  -31680.268561    1041.657921 
  530000     302.164610   -4603.091541   -5504.687543       0.000000       0.000000       0.000000   25090.240542  -31680.958458    1086.030372 
  540000     295.147731   -4678.626897   -5559.285998       0.000000       0.000000       0.000000   25040.531562  -31681.646898    1081.829339 
  550000     289.487921   -4637.973221   -5501.744632       0.000000       0.000000       0.000000   25115.132962  -31682.138760    1065.261166 
  560000     295.397741   -4628.402692   -5509.807771       0.000000       0.000000       0.000000   25163.823107  -31678.893389    1005.262511 
  570000     292.184225   -4610.592816   -5482.409435       0.000000       0.000000       0.000000   25134.416404  -31679.334315    1062.508476 
  580000     297.414765   -4672.757858   -5560.181316       0.000000       0.000000       0.000000   25020.210688  -31682.726642    1102.334637 
  590000     300.043743   -4580.047882   -5475.315661       0.000000       0.000000       0.000000   25131.457023  -31681.056540    1074.283855 
  600000     307.199112   -4623.166928   -5539.784830       0.000000       0.000000       0.000000   25082.783598  -31682.849679    1060.281251 
  610000     302.186920   -4606.724143   -5508.386713       0.000000       0.000000       0.000000   25048.330174  -31679.455317    1122.738430 
  620000     293.345974   -4657.876748   -5533.159783       0.000000       0.000000       0.000000   25003.170652  -31681.055359    1144.724923 
  630000     305.175523   -4634.777105   -5545.357041       0.000000       0.000000       0.000000   25074.654153  -31686.987000    1066.975806 
  640000     285.443987   -4668.481361   -5520.186520       0.000000       0.000000       0.000000   25017.102013  -31684.996173    1147.707640 
  650000     291.658880   -4670.001530   -5540.250630       0.000000       0.000000       0.000000   24996.830922  -31680.182492    1143.100940 
  660000     295.545918   -4614.438787   -5496.285997       0.000000       0.000000       0.000000   25071.652986  -31680.854006    1112.915023 
  670000     289.287554   -4649.663725   -5512.837285       0.000000       0.000000       0.000000   25031.667909  -31680.876726    1136.371532 
  680000     307.574202   -4642.095130   -5559.832224       0.000000       0.000000       0.000000   25062.819793  -31682.719611    1060.067593 
  690000     304.541137   -4657.593981   -5566.281041       0.000000       0.000000       0.000000   25064.562477  -31686.788836    1055.945318 
  700000     290.502846   -4682.923199   -5549.722935       0.000000       0.000000       0.000000   24985.774782  -31685.908224    1150.410506 
  710000     295.873789   -4623.438978   -5506.264486       0.000000       0.000000       0.000000   25104.424327  -31679.518398    1068.829585 
  720000     294.027282   -4670.976070   -5548.291988       0.000000       0.000000       0.000000   25056.498330  -31685.141159    1080.350840 
  730000     291.419416   -4622.598645   -5492.133235       0.000000       0.000000       0.000000   25085.939844  -31681.870771    1103.797692 
  740000     289.105105   -4666.344780   -5528.973948       0.000000       0.000000       0.000000   25000.596800  -31684.565537    1154.994789 
  750000     293.592253   -4664.592663   -5540.610544       0.000000       0.000000       0.000000   25056.474220  -31680.706826    1083.622063 
  760000     295.647220   -4659.585224   -5541.734696       0.000000       0.000000       0.000000   25076.371047  -31685.709536    1067.603793 
  770000     304.854738   -4632.312852   -5541.935632       0.000000       0.000000       0.000000   24994.693467  -31679.525560    1142.896461 
  780000     297.083770   -4629.993304   -5516.429142       0.000000       0.000000       0.000000   25086.756335  -31677.573855    1074.388378 
  790000     292.567027   -4699.297622   -5572.256442       0.000000       0.000000       0.000000   25044.262118  -31680.434961    1063.916401 
  800000     291.480099   -4641.382030   -5511.097687       0.000000       0.000000       0.000000   25042.948769  -31680.653144    1126.606688 
  810000     299.766253   -4556.967296   -5451.407102       0.000000       0.000000       0.000000   25165.114487  -31678.025070    1061.503480 
  820000     286.399308   -4747.118490   -5601.674126       0.000000       0.000000       0.000000   24924.683931  -31682.998325    1156.640268 
  830000     282.523926   -4680.832650   -5523.824958       0.000000       0.000000       0.000000   25081.641379  -31685.303643    1079.837306 
  840000     301.052965   -4555.517394   -5453.796479       0.000000       0.000000       0.000000   25189.124537  -31678.944002    1036.022986 
  850000     294.734898   -4696.033753   -5575.461049       0.000000       0.000000       0.000000   24963.217192  -31681.402052    1142.723812 
  860000     308.553752   -4598.661502   -5519.321369       0.000000       0.000000       0.000000   25078.756060  -31681.221450    1083.144021 
  870000     295.755330   -4728.165909   -5610.637959       0.000000       0.000000       0.000000   24920.033224  -31686.164208    1155.493025 
  880000     290.129917   -4712.945046   -5578.632042       0.000000       0.000000       0.000000   24973.860482  -31681.992874    1129.500350 
  890000     296.345780   -4653.914290   -5538.148120       0.000000       0.000000       0.000000   25108.606330  -31681.726941    1034.972491 
  900000     308.937249   -4589.232592   -5511.036731       0.000000       0.000000       0.000000   25122.881946  -31680.733352    1046.814675 
  910000     295.505520   -4602.189436   -5483.916105       0.000000       0.000000       0.000000   25146.051767  -31682.117753    1052.149881 
  920000     291.302114   -4701.198204   -5570.382788       0.000000       0.000000       0.000000   25021.122461  -31682.575514    1091.070266 
  930000     294.906614   -4635.990419   -5515.930078       0.000000       0.000000       0.000000   25103.722070  -31680.357839    1060.705691 
  940000     303.343551   -4600.142322   -5505.256036       0.000000       0.000000       0.000000   25031.650815  -31683.222938    1146.316087 
  950000     295.393826   -4679.270202   -5560.663599       0.000000       0.000000       0.000000   25051.315227  -31685.794995    1073.816169 
  960000     298.414322   -4704.364516   -5594.770444       0.000000       0.000000       0.000000   24915.081799  -31685.112403    1175.260160 
  970000     294.744693   -4633.148260   -5512.604783       0.000000       0.000000       0.000000   25079.768186  -31682.109074    1089.736106 
  980000     298.130566   -4716.620753   -5606.180010       0.000000       0.000000       0.000000   24922.654265  -31682.812338    1153.978063 
  990000     310.793382   -4634.897742   -5562.240195       0.000000       0.000000       0.000000   24992.979871  -31679.302316    1124.082251 
 1000000     295.884429   -4630.795324   -5513.652577       0.000000       0.000000       0.000000   25101.966301  -31680.421773    1064.802895 
 1010000     306.772470   -4647.769373   -5563.114265       0.000000       0.000000       0.000000   25091.907803  -31682.482874    1027.460806 
 1020000     303.379402   -4566.109586   -5471.330273       0.000000       0.000000       0.000000   25111.658550  -31677.082279    1094.093457 
 1030000     281.903647   -4668.861528   -5510.003054       0.000000       0.000000       0.000000   25067.351918  -31683.122207    1105.767235 
 1040000     288.699770   -4663.271406   -5524.691142       0.000000       0.000000       0.000000   25030.631974  -31683.426100    1128.102984 
 1050000     301.145416   -4617.766882   -5516.321822       0.000000       0.000000       0.000000   25081.717402  -31679.800287    1081.761063 
 1060000     298.209141   -4708.080999   -5597.874708       0.000000       0.000000       0.000000   24998.097866  -31686.189382    1090.216809 
 1070000     282.562358   -4601.056064   -5444.163047       0.000000       0.000000       0.000000   25164.999201  -31684.262480    1075.100232 
 1080000     295.050977   -4614.626871   -5494.997279       0.000000       0.000000       0.000000   25095.615240  -31681.231253    1090.618734 
 1090000     291.699202   -4668.672979   -5539.042391       0.000000       0.000000       0.000000   25057.693594  -31682.370807    1085.634823 
 1100000     304.004712   -4633.447032   -5540.533512       0.000000       0.000000       0.000000   25024.722065  -31680.938110    1115.682533 
 1110000     302.361500   -4658.205886   -5560.389367       0.000000       0.000000       0.000000   25002.851258  -31684.042787    1120.802163 
 1120000     308.288764   -4607.579603   -5527.448799       0.000000       0.000000       0.000000   25030.156910  -31682.907140    1125.301431 
 1130000     284.975895   -4709.003630   -5559.312101       0.000000       0.000000       0.000000   24965.033983  -31680.995242    1156.649158 
 1140000     305.765236   -4632.982276   -5545.321793       0.000000       0.000000       0.000000   25066.989121  -31685.510060    1073.199146 
 1150000     304.100929   -4674.129836   -5581.503409       0.000000       0.000000       0.000000   25051.714165  -31684.567938    1051.350364 
 1160000     314.615354   -4635.181121   -5573.927538       0.000000       0.000000       0.000000   24968.312467  -31685.639324    1143.399320 
 1170000     295.912711   -4615.175703   -5498.117344       0.000000       0.000000       0.000000   25080.840063  -31682.934810    1103.977403 
 1180000     306.130099   -4578.594070   -5492.022262       0.000000       0.000000       0.000000   25111.916820  -31680.477876    1076.538794 
 1190000     297.827799   -4640.175092   -5528.830955       0.000000       0.000000       0.000000   25087.637585  -31676.651873    1060.183333 
 1200000     303.042708   -4625.652806   -5529.868867       0.000000       0.000000       0.000000   24998.209766  -31681.773729    1153.695096 
 1210000     295.446417   -4660.750605   -5542.300924       0.000000       0.000000       0.000000   24990.433929  -31681.502778    1148.767925 
 1220000     290.845953   -4665.422738   -5533.246233       0.000000       0.000000       0.000000   25035.246820  -31684.085409    1115.592355 
 1230000     303.782393   -4687.375065   -5593.798192       0.000000       0.000000       0.000000   25049.661960  -31683.903696    1040.443544 
 1240000     298.185585   -4617.486295   -5507.209718       0.000000       0.000000       0.000000   25051.604095  -31679.114085    1120.300272 
 1250000     311.752542   -4663.929486   -5594.133873       0.000000       0.000000       0.000000   25017.029460  -31687.593888    1076.430556 
 1260000     292.933408   -4678.802332   -5552.854357       0.000000       0.000000       0.000000   24980.284915  -31681.784741    1148.645470 
 1270000     287.606779   -4697.863995   -5556.022474       0.000000       0.000000       0.000000   24979.190220  -31684.159666    1148.946971 
 1280000     276.759752   -4746.094419   -5571.887639       0.000000       0.000000       0.000000   25049.648213  -31682.794608    1061.258756 
 1290000     305.608675   -4630.170221   -5542.042593       0.000000       0.000000       0.000000   25004.898282  -31675.145538    1128.204664 
 1300000     291.177137   -4731.077242   -5599.888923       0.000000       0.000000       0.000000   24956.163485  -31683.011954    1126.959546 
 1310000     297.366914   -4634.532807   -5521.813487       0.000000       0.000000       0.000000   25032.434972  -31682.881273    1128.632814 
 1320000     301.282069   -4620.644843   -5519.607526       0.000000       0.000000       0.000000   25082.228579  -31679.124726    1077.288621 
 1330000     305.848088   -4632.375026   -5544.961754       0.000000       0.000000       0.000000   25042.739925  -31678.641662    1090.939983 
 1340000     296.867971   -4598.455655   -5484.247592       0.000000       0.000000       0.000000   25146.106434  -31681.163748    1050.809723 
 1350000     310.974893   -4599.486434   -5527.370478       0.000000       0.000000       0.000000   25043.707812  -31686.835035    1115.756745 
 1360000     297.556169   -4610.829553   -5498.674930       0.000000       0.000000       0.000000   25176.705803  -31679.607626    1004.226893 
 1370000     286.613662   -4672.849323   -5528.044550       0.000000       0.000000       0.000000   25102.478118  -31680.517326    1049.994658 
 1380000     297.671358   -4644.224066   -5532.413143       0.000000       0.000000       0.000000   25064.897446  -31680.131975    1082.821386 
 1390000     300.344991   -4660.170452   -5556.337091       0.000000       0.000000       0.000000   24991.440887  -31684.522217    1136.744238 
 1400000     297.738128   -4642.526012   -5530.914317       0.000000       0.000000       0.000000   25044.276076  -31682.295916    1107.105523 
 1410000     308.363601   -4564.826400   -5484.918894       0.000000       0.000000       0.000000   25137.430260  -31682.830468    1060.481314 
 1420000     303.349411   -4642.628911   -5547.760111       0.000000       0.000000       0.000000   25042.597076  -31684.181237    1093.824049 
 1430000     307.351537   -4549.226908   -5466.299614       0.000000       0.000000       0.000000   25124.931010  -31675.302655    1084.072032 
 1440000     301.940325   -4550.420092   -5451.346875       0.000000       0.000000       0.000000   25130.431588  -31680.129327    1098.350864 
 1450000     289.447542   -4673.479442   -5537.130371       0.000000       0.000000       0.000000   25031.485123  -31685.008658    1116.393164 
 1460000     297.639448   -4705.912674   -5594.006537       0.000000       0.000000       0.000000   24931.228383  -31682.263209    1157.028288 
 1470000     318.165760   -4585.334125   -5534.674211       0.000000       0.000000       0.000000   25062.959717  -31685.101198    1087.467270 
 1480000     300.447996   -4599.844314   -5496.318298       0.000000       0.000000       0.000000   25068.164724  -31678.675465    1114.192443 
 1490000     310.013439   -4628.983156   -5553.998421       0.000000       0.000000       0.000000   25060.713615  -31681.946661    1067.234625 
 1500000     311.989916   -4580.878545   -5511.791205       0.000000       0.000000       0.000000   25104.959834  -31681.716975    1064.965936 
 1510000     300.263423   -4684.945175   -5580.868432       0.000000       0.000000       0.000000   24959.614876  -31684.353840    1143.870533 
 1520000     297.003463   -4656.451700   -5542.647920       0.000000       0.000000       0.000000   25098.454097  -31679.493464    1038.391448 
 1530000     300.611400   -4608.399888   -5505.361437       0.000000       0.000000       0.000000   25141.903178  -31682.575685    1035.311070 
 1540000     290.433311   -4684.917115   -5551.509374       0.000000       0.000000       0.000000   25019.606237  -31676.600481    1105.484871 
 1550000     304.880270   -4645.906651   -5555.605615       0.000000       0.000000       0.000000   25074.659556  -31680.604607    1050.339435 
 1560000     292.124357   -4643.818067   -5515.456053       0.000000       0.000000       0.000000   25025.939908  -31679.814786    1138.418825 
 1570000     310.085733   -4653.685829   -5578.916805       0.000000       0.000000       0.000000   25068.603782  -31684.265582    1036.744996 
 1580000     300.332245   -4662.612237   -5558.740845       0.000000       0.000000       0.000000   24990.481322  -31682.573113    1133.350946 
 1590000     297.787757   -4584.437560   -5472.973948       0.000000       0.000000       0.000000   25144.808468  -31680.596123    1062.813707 
 1600000     294.294843   -4625.100556   -5503.214818       0.000000       0.000000       0.000000   25069.780559  -31682.404650    1109.409273 
 1610000     298.057500   -4563.408852   -5452.750097       0.000000       0.000000       0.000000   25081.853145  -31681.328450    1146.725208 
 1620000     292.837971   -4638.336415   -5512.103677       0.000000       0.000000       0.000000   25118.455596  -31682.634815    1052.075542 
 1630000     310.734097   -4603.093070   -5530.258629       0.000000       0.000000       0.000000   25022.935905  -31681.955468    1128.760934 
 1640000     304.402228   -4620.277842   -5528.550427       0.000000       0.000000       0.000000   25083.288487  -31679.245678    1067.406764 
 1650000     308.241733   -4535.233775   -5454.962639       0.000000       0.000000       0.000000   25151.658508  -31684.060275    1077.439127 
 1660000     295.582490   -4712.824018   -5594.780349       0.000000       0.000000       0.000000   24969.567128  -31685.699845    1121.352368 
 1670000     300.046795   -4644.803192   -5540.080077       0.000000       0.000000       0.000000   24980.801957  -31685.967945    1165.085911 
 1680000     299.367387   -4588.744017   -5481.993690       0.000000       0.000000       0.000000   25166.475549  -31681.980907    1033.511668 
 1690000     299.608496   -4637.177960   -5531.147052       0.000000       0.000000       0.000000   25064.470198  -31684.548301    1088.931051 
 1700000     301.393006   -4644.502358   -5543.796054       0.000000       0.000000       0.000000   25103.565487  -31677.480587    1030.119046 
 1710000     298.723631   -4660.801086   -5552.129927       0.000000       0.000000       0.000000   24969.764667  -31679.632049    1157.737455 
 1720000     300.467521   -4637.747992   -5534.280234       0.000000       0.000000       0.000000   25048.572533  -31681.075017    1098.222251 
 1730000     301.507757   -4679.120305   -5578.756394       0.000000       0.000000       0.000000   25010.512593  -31685.537433    1096.268446 
 1740000     284.108957   -4666.738276   -5514.459985       0.000000       0.000000       0.000000   25049.408748  -31683.345284    1119.476551 
 1750000     299.301336   -4596.319263   -5489.371855       0.000000       0.000000       0.000000   25171.678322  -31682.735286    1021.685108 
 1760000     299.575307   -4616.582001   -5510.452064       0.000000       0.000000       0.000000   25036.602209  -31687.476518    1140.422245 
 1770000     299.447923   -4636.594098   -5530.084073       0.000000       0.000000       0.000000   25100.768842  -31684.284413    1053.431498 
 1780000     299.825160   -4572.448912   -5467.064483       0.000000       0.000000       0.000000   25155.347919  -31679.694875    1057.282473 
 1790000     288.180702   -4684.479307   -5544.350250       0.000000       0.000000       0.000000   25067.709041  -31683.113722    1071.054431 
 1800000     300.139177   -4568.148914   -5463.701447       0.000000       0.000000       0.000000   25177.399768  -31680.673953    1039.572738 
 1810000     306.839682   -4647.551619   -5563.097058       0.000000       0.000000       0.000000   25025.230244  -31677.428220    1089.100918 
 1820000     298.327318   -4666.052494   -5556.198818       0.000000       0.000000       0.000000   25072.786715  -31683.754313    1054.768780 
 1830000     292.172825   -4706.005414   -5577.788018       0.000000       0.000000       0.000000   25060.839889  -31681.043676    1042.415768 
 1840000     299.848927   -4624.760483   -5519.446972       0.000000       0.000000       0.000000   25007.134169  -31682.607131    1156.025991 
 1850000     300.234281   -4652.622940   -5548.459243       0.000000       0.000000       0.000000   25027.850098  -31682.318950    1106.009609 
 1860000     298.462908   -4631.901053   -5522.451949       0.000000       0.000000       0.000000   25061.566495  -31682.380744    1098.362299 
 1870000     301.599839   -4692.446621   -5592.357464       0.000000       0.000000       0.000000   25030.847012  -31685.600235    1062.395759 
 1880000     290.375682   -4640.558013   -5506.978319       0.000000       0.000000       0.000000   25086.005120  -31682.265836    1089.282397 
 1890000     292.073513   -4695.063758   -5566.550036       0.000000       0.000000       0.000000   24998.394498  -31682.237988    1117.293454 
 1900000     301.478467   -4546.283217   -5445.831911       0.000000       0.000000       0.000000   25219.555922  -31683.063810    1017.675976 
 1910000     282.192197   -4658.732818   -5500.735316       0.000000       0.000000       0.000000   25090.088680  -31681.540503    1090.716507 
 1920000     281.562958   -4722.651157   -5562.776137       0.000000       0.000000       0.000000   25057.564441  -31681.272937    1060.932359 
 1930000     296.377226   -4664.706422   -5549.034079       0.000000       0.000000       0.000000   25022.867752  -31684.426973    1112.525142 
 1940000     291.895201   -4658.239625   -5529.193859       0.000000       0.000000       0.000000   25051.295254  -31686.355611    1105.866498 
 1950000     293.775501   -4663.532761   -5540.097416       0.000000       0.000000       0.000000   25047.627795  -31682.095658    1094.370446 
 1960000     287.289918   -4674.911125   -5532.124156       0.000000       0.000000       0.000000   25035.024896  -31680.798379    1113.649327 
 1970000     297.629888   -4697.201096   -5585.266435       0.000000       0.000000       0.000000   25029.096431  -31682.919332    1068.556467 
 1980000     293.879963   -4594.159802   -5471.036150       0.000000       0.000000       0.000000   25153.781184  -31684.873752    1060.056418 
 1990000     306.284062   -4576.916883   -5490.804468       0.000000       0.000000       0.000000   25059.308103  -31679.990378    1129.877807 
 2000000     299.526159   -4607.939357   -5501.662772       0.000000       0.000000       0.000000   25125.863971  -31681.977664    1054.450921 
 2010000     290.106937   -4656.284846   -5521.903273       0.000000       0.000000       0.000000   25101.110331  -31682.156663    1059.143058 
 2020000     298.647845   -4630.056454   -5521.159164       0.000000       0.000000       0.000000   25062.680959  -31681.078197    1097.238074 
 2030000     304.830060   -4637.002129   -5546.551276       0.000000       0.000000       0.000000   25004.289405  -31686.135327    1135.294645 
 2040000     298.631098   -4659.071652   -5550.124394       0.000000       0.000000       0.000000   25020.768823  -31681.923774    1111.030557 
 2050000     305.858219   -4704.006728   -5616.623688       0.000000       0.000000       0.000000   24916.457650  -31681.885041    1148.803704 
 2060000     310.923257   -4642.774789   -5570.504762       0.000000       0.000000       0.000000   24979.048677  -31685.698190    1136.144751 
 2070000     292.838262   -4597.719747   -5471.487875       0.000000       0.000000       0.000000   25125.201846  -31681.258403    1084.568681 
 2080000     297.957101   -4674.304894   -5563.346569       0.000000       0.000000       0.000000   25070.056952  -31682.361853    1048.958332 
 2090000     299.683706   -4601.411251   -5495.604752       0.000000       0.000000       0.000000   25075.532132  -31684.705211    1113.568326 
 2100000     299.302969   -4643.243103   -5536.300565       0.000000       0.000000       0.000000   25017.724278  -31680.650792    1126.625950 
 2110000     303.277165   -4601.246098   -5506.161731       0.000000       0.000000       0.000000   25051.693359  -31680.886296    1123.031207 
 2120000     299.055701   -4716.743796   -5609.063464       0.000000       0.000000       0.000000   24907.021227  -31681.689767    1165.605076 
 2130000     297.251466   -4650.122456   -5537.058664       0.000000       0.000000       0.000000   25085.825751  -31676.745978    1053.861563 
 2140000     294.494302   -4608.329880   -5487.039287       0.000000       0.000000       0.000000   25078.303879  -31680.446885    1115.103719 
 2150000     306.576768   -4639.442104   -5554.203063       0.000000       0.000000       0.000000   25015.146851  -31682.331948    1112.982034 
 2160000     305.195370   -4581.727106   -5492.366262       0.000000       0.000000       0.000000   25142.809886  -31680.156991    1044.980843 
 2170000     302.557728   -4698.645089   -5601.414072       0.000000       0.000000       0.000000   24964.481165  -31685.673550    1119.778313 
 2180000     301.225007   -4650.384713   -5549.177136       0.000000       0.000000       0.000000   24980.751505  -31680.629375    1150.700734 
 2190000     290.245952   -4695.522621   -5561.555838       0.000000       0.000000       0.000000   25020.212706  -31687.412771    1105.644227 
 2200000     307.389392   -4544.863789   -5462.049449       0.000000       0.000000       0.000000   25128.001186  -31679.961390    1089.910755 
 2210000     298.681284   -4554.984860   -5446.187345       0.000000       0.000000       0.000000   25165.945975  -31676.954846    1064.821526 
 2220000     308.587503   -4590.221909   -5510.982481       0.000000       0.000000       0.000000   25103.776855  -31682.257124    1067.497788 
 2230000     300.248721   -4639.632317   -5535.511706       0.000000       0.000000       0.000000   25037.216561  -31681.131374    1108.403107 
 2240000     298.316397   -4615.035398   -5505.149137       0.000000       0.000000       0.000000   25062.923761  -31680.589914    1112.517016 
 2250000     305.768133   -4724.235779   -5636.583940       0.000000       0.000000       0.000000   24974.888135  -31687.291414    1075.819339 
 2260000     303.300435   -4639.720203   -5544.705268       0.000000       0.000000       0.000000   25012.579222  -31682.252985    1124.968495 
 2270000     294.059984   -4690.475155   -5567.888648       0.000000       0.000000       0.000000   24978.743652  -31684.311674    1137.679375 
 2280000     293.951898   -4679.125175   -5556.216160       0.000000       0.000000       0.000000   25037.356754  -31681.561531    1087.988617 
 2290000     301.105589   -4668.337924   -5566.774029       0.000000       0.000000       0.000000   24984.756785  -31682.421274    1130.890459 
 2300000     310.893230   -4556.646276   -5484.286656       0.000000       0.000000       0.000000   25160.209262  -31680.135504    1035.639586 
 2310000     299.021135   -4664.341092   -5556.557622       0.000000       0.000000       0.000000   25046.544674  -31682.353585    1079.251289 
 2320000     305.748334   -4626.915970   -5539.205054       0.000000       0.000000       0.000000   24992.945401  -31678.366414    1146.215959 
 2330000     295.711056   -4661.350700   -5543.690646       0.000000       0.000000       0.000000   25062.950531  -31683.572633    1076.931457 
 2340000     302.155093   -4578.525285   -5480.092889       0.000000       0.000000       0.000000   25137.404711  -31677.900561    1060.402961 
 2350000     315.564660   -4598.064281   -5539.643230       0.000000       0.000000       0.000000   25021.674916  -31684.644287    1123.326141 
 2360000     286.798489   -4644.934060   -5500.680771       0.000000       0.000000       0.000000   25110.121232  -31681.937330    1071.135326 
 2370000     300.650959   -4548.656556   -5445.736140       0.000000       0.000000       0.000000   25237.737148  -31681.391943     997.918655 
 2380000     302.412777   -4597.393674   -5499.730155       0.000000       0.000000       0.000000   25032.297324  -31681.124430    1149.096952 
 2390000     303.736437   -4621.449919   -5527.735925       0.000000       0.000000       0.000000   25062.798545  -31682.751833    1092.217363 
 2400000     299.875419   -4582.434476   -5477.200010       0.000000       0.000000       0.000000   25173.061149  -31677.607404    1027.346245 
 2410000     294.999481   -4596.964166   -5477.180921       0.000000       0.000000       0.000000   25170.008007  -31677.581535    1030.392606 
 2420000     304.965638   -4585.734457   -5495.688140       0.000000       0.000000       0.000000   25119.328775  -31678.378783    1063.361868 
 2430000     291.029150   -4648.858911   -5517.229027       0.000000       0.000000       0.000000   25007.787658  -31680.512052    1155.495367 
 2440000     298.603475   -4655.133770   -5546.104090       0.000000       0.000000       0.000000   25017.902570  -31678.431403    1114.424744 
 2450000     291.176219   -4655.567500   -5524.376441       0.000000       0.000000       0.000000   25101.721207  -31682.315810    1056.218161 
 2460000     300.934735   -4657.648067   -5555.574380       0.000000       0.000000       0.000000   24976.598904  -31680.156806    1147.983522 
 2470000     298.347041   -4611.668635   -5501.873811       0.000000       0.000000       0.000000   25090.917441  -31678.711351    1085.920100 
 2480000     294.555012   -4697.054755   -5575.945308       0.000000       0.000000       0.000000   24966.187736  -31682.059656    1139.926612 
 2490000     299.540267   -4701.111117   -5594.876628       0.000000       0.000000       0.000000   25025.612099  -31681.781816    1061.293088 
 2500000     296.762940   -4663.498428   -5548.976977       0.000000       0.000000       0.000000   25028.532575  -31682.233739    1104.724187 
 2510000     303.983820   -4619.704069   -5526.728212       0.000000       0.000000       0.000000   25037.469908  -31683.615081    1119.416961 
 2520000     286.916469   -4702.645771   -5558.744509       0.000000       0.000000       0.000000   25047.452623  -31685.922762    1079.725630 
 2530000     294.102617   -4639.250853   -5516.791553       0.000000       0.000000       0.000000   25104.541340  -31686.124982    1064.792089 
 2540000     312.856684   -4508.139493   -5441.638408       0.000000       0.000000       0.000000   25156.222604  -31681.347383    1083.486371 
 2550000     282.626361   -4671.076354   -5514.374306       0.000000       0.000000       0.000000   25072.403033  -31680.709179    1093.931840 
 2560000     292.205833   -4659.078250   -5530.959345       0.000000       0.000000       0.000000   25086.720067  -31683.185547    1065.506135 
 2570000     299.735350   -4637.983696   -5532.331292       0.000000       0.000000       0.000000   25091.002588  -31684.958709    1061.624828 
 2580000     302.704753   -4621.350257   -5524.557933       0.000000       0.000000       0.000000   25107.350237  -31684.447429    1052.539259 
 2590000     309.377825   -4551.987108   -5475.105834       0.000000       0.000000       0.000000   25133.492612  -31682.790718    1074.192272 
 2600000     306.464689   -4581.627174   -5496.053711       0.000000       0.000000       0.000000   25144.677427  -31684.678091    1043.946953 
 2610000     294.989596   -4580.322448   -5460.509707       0.000000       0.000000       0.000000   25133.626240  -31684.027873    1089.891926 
 2620000     301.118414   -4595.180443   -5493.654814       0.000000       0.000000       0.000000   25103.020061  -31678.190803    1081.515927 
 2630000     287.367947   -4611.838395   -5469.284250       0.000000       0.000000       0.000000   25119.594049  -31683.251630    1094.373330 
 2640000     313.769423   -4630.345244   -5566.567581       0.000000       0.000000       0.000000   24986.287322  -31682.947380    1130.092477 
 2650000     286.621742   -4675.368776   -5530.588112       0.000000       0.000000       0.000000   25005.588611  -31680.253891    1144.077169 
 2660000     298.826740   -4711.326486   -5602.962982       0.000000       0.000000       0.000000   24970.066651  -31685.139191    1112.109558 
 2670000     292.125164   -4648.501017   -5520.141411       0.000000       0.000000       0.000000   25064.791214  -31682.771508    1097.838883 
 2680000     303.102353   -4652.637329   -5557.031360       0.000000       0.000000       0.000000   25068.807845  -31683.395001    1057.555797 
 2690000     299.118064   -4631.657841   -5524.163585       0.000000       0.000000       0.000000   25103.415905  -31680.734850    1053.155360 
 2700000     304.150877   -4622.977505   -5530.500111       0.000000       0.000000       0.000000   25084.617285  -31682.120392    1067.002996 
 2710000     297.498741   -4616.335611   -5504.009636       0.000000       0.000000       0.000000   25117.413514  -31679.992282    1058.569132 
 2720000     296.834555   -4610.836680   -5496.528913       0.000000       0.000000       0.000000   25167.143240  -31682.328989    1018.656837 
 2730000     287.476572   -4730.410072   -5588.180040       0.000000       0.000000       0.000000   24965.599298  -31679.952062    1126.172724 
 2740000     311.690407   -4591.723248   -5521.742237       0.000000       0.000000       0.000000   25077.465377  -31683.431300    1084.223687 
 2750000     295.263332   -4606.321623   -5487.325656       0.000000       0.000000       0.000000   25194.547900  -31681.562291     999.688735 
 2760000     287.474871   -4651.061249   -5508.826143       0.000000       0.000000       0.000000   25090.677304  -31679.558697    1080.055250 
 2770000     287.291902   -4601.293971   -5458.512921       0.000000       0.000000       0.000000   25207.506382  -31682.086632    1016.067328 
 2780000     305.555457   -4618.885276   -5530.598857       0.000000       0.000000       0.000000   25037.231338  -31684.532085    1116.701890 
 2790000     298.445887   -4665.110829   -5555.610938       0.000000       0.000000       0.000000   25038.354698  -31683.555829    1089.590193 
 2800000     301.412145   -4587.418081   -5486.768884       0.000000       0.000000       0.000000   25072.234125  -31686.253224    1127.250215 
 2810000     292.682227   -4644.316775   -5517.619329       0.000000       0.000000       0.000000   25063.198838  -31680.960091    1100.141924 
 2820000     313.455632   -4634.097196   -5569.383247       0.000000       0.000000       0.000000   25025.110442  -31687.522905    1093.029216 
 2830000     306.020332   -4546.694298   -5459.794968       0.000000       0.000000       0.000000   25157.550954  -31681.123703    1063.777781 
 2840000     298.802069   -4646.108760   -5537.671642       0.000000       0.000000       0.000000   25018.685480  -31684.283988    1127.926866 
 2850000     306.587633   -4682.664592   -5597.457970       0.000000       0.000000       0.000000   24926.369844  -31682.616361    1158.788548 
 2860000     306.956470   -4595.171379   -5511.065287       0.000000       0.000000       0.000000   25052.717202  -31682.339616    1118.557126 
 2870000     282.825608   -4663.576583   -5507.469046       0.000000       0.000000       0.000000   25090.625811  -31680.145102    1082.050245 
 2880000     283.036447   -4661.573693   -5506.095256       0.000000       0.000000       0.000000   25097.472622  -31686.396979    1082.829102 
 2890000     298.518270   -4658.704584   -5549.420670       0.000000       0.000000       0.000000   25007.493385  -31680.832889    1123.918834 
 2900000     294.826876   -4585.747726   -5465.449464       0.000000       0.000000       0.000000   25214.545710  -31681.943955    1001.948781 
 2910000     294.916360   -4610.371432   -5490.340171       0.000000       0.000000       0.000000   25057.597661  -31682.092622    1134.154790 
 2920000     295.596843   -4656.351765   -5538.350924       0.000000       0.000000       0.000000   25068.285533  -31677.668791    1071.032334 
 2930000     287.069680   -4654.324970   -5510.880858       0.000000       0.000000       0.000000   25067.362243  -31682.659619    1104.416518 
 2940000     294.487790   -4656.740572   -5535.430548       0.000000       0.000000       0.000000   25107.199734  -31683.596115    1040.965832 
 2950000     311.302535   -4635.667687   -5564.529345       0.000000       0.000000       0.000000   25025.407163  -31687.459560    1097.523052 
 2960000     299.671271   -4559.245807   -5453.402206       0.000000       0.000000       0.000000   25140.456088  -31680.043973    1086.185679 
 2970000     294.116107   -4741.678850   -5619.259802       0.000000       0.000000       0.000000   24911.390605  -31680.168237    1149.517830 
 2980000     302.656677   -4615.744385   -5518.808611       0.000000       0.000000       0.000000   25095.921629  -31679.192663    1064.462423 
 2990000     298.000883   -4698.145398   -5587.317709       0.000000       0.000000       0.000000   25014.585929  -31684.752708    1082.849070 
 3000000     293.690542   -4630.186574   -5506.497729       0.000000       0.000000       0.000000   25096.626272  -31678.968754    1075.844753 
 3010000     306.279258   -4679.187618   -5593.060868       0.000000       0.000000       0.000000   24971.339707  -31682.687726    1118.287151 
 3020000     309.158185   -4618.033128   -5540.496496       0.000000       0.000000       0.000000   25022.106891  -31682.822990    1120.219603 
 3030000     310.396598   -4584.604613   -5510.763145       0.000000       0.000000       0.000000   25132.112692  -31684.716654    1041.840817 
 3040000     293.012008   -4692.436864   -5566.723416       0.000000       0.000000       0.000000   25044.447350  -31684.111988    1072.941221 
 3050000     310.437381   -4627.692972   -5553.973192       0.000000       0.000000       0.000000   24978.854696  -31681.830406    1149.002518 
 3060000     304.181697   -4606.785252   -5514.399819       0.000000       0.000000       0.000000   25068.739752  -31680.511684    1097.372113 
 3070000     318.610993   -4585.655461   -5536.324031       0.000000       0.000000       0.000000   25037.253309  -31680.606487    1107.029147 
 3080000     287.732207   -4620.415256   -5478.947986       0.000000       0.000000       0.000000   25224.660887  -31684.951856     981.342983 
 3090000     287.606596   -4771.431430   -5629.589363       0.000000       0.000000       0.000000   24864.398183  -31685.811303    1191.823757 
 3100000     291.331468   -4661.460843   -5530.733015       0.000000       0.000000       0.000000   25085.709070  -31681.366870    1064.924785 
 3110000     291.427414   -4678.993521   -5548.551975       0.000000       0.000000       0.000000   25069.674543  -31683.850316    1065.623798 
 3120000     310.087310   -4646.491519   -5571.727201       0.000000       0.000000       0.000000   25059.273755  -31686.098478    1055.097522 
 3130000     313.294982   -4573.177205   -5507.983909       0.000000       0.000000       0.000000   25108.004767  -31681.147437    1065.158761 
 3140000     314.203121   -4591.996522   -5529.512923       0.000000       0.000000       0.000000   24988.428018  -31684.608329    1166.667388 
 3150000     295.374915   -4662.431328   -5543.768299       0.000000       0.000000       0.000000   25032.814423  -31683.445013    1106.862291 
 3160000     296.938971   -4622.448777   -5508.452566       0.000000       0.000000       0.000000   25056.331283  -31678.917573    1114.133723 
 3170000     301.910793   -4652.065990   -5552.904654       0.000000       0.000000       0.000000   25000.620437  -31680.819339    1127.294247 
 3180000     305.904208   -4645.389759   -5558.143939       0.000000       0.000000       0.000000   24996.571197  -31681.568321    1126.853186 
 3190000     299.478861   -4668.851543   -5562.433830       0.000000       0.000000       0.000000   24955.086259  -31680.070813    1162.550724 
 3200000     298.176394   -4661.852622   -5551.548622       0.000000       0.000000       0.000000   25058.805718  -31684.732862    1074.378522 
 3210000     308.519225   -4668.425262   -5588.982106       0.000000       0.000000       0.000000   25000.820885  -31683.676445    1093.873455 
 3220000     296.472002   -4664.931733   -5549.542182       0.000000       0.000000       0.000000   25035.019352  -31684.757513    1100.195979 
 3230000     305.345220   -4589.511903   -5500.598178       0.000000       0.000000       0.000000   25153.764361  -31683.139881    1028.777341 
 3240000     284.109981   -4667.299140   -5515.023903       0.000000       0.000000       0.000000   25130.206176  -31679.270097    1034.040018 
 3250000     299.710058   -4663.551654   -5557.823785       0.000000       0.000000       0.000000   25025.768141  -31682.905929    1099.314003 
 3260000     320.514454   -4563.201444   -5519.549542       0.000000       0.000000       0.000000   25070.884408  -31685.467018    1095.033068 
 3270000     310.180893   -4564.827968   -5490.342881       0.000000       0.000000       0.000000   25180.560878  -31683.389714    1012.485956 
 3280000     290.306576   -4633.346721   -5499.560830       0.000000       0.000000       0.000000   25127.709240  -31685.326314    1058.056245 
 3290000     296.211651   -4617.357729   -5501.191346       0.000000       0.000000       0.000000   25092.231938  -31681.759256    1088.335971 
 3300000     304.833402   -4604.500577   -5514.059695       0.000000       0.000000       0.000000   25000.119837  -31678.042342    1163.862810 
 3310000     304.561556   -4604.127962   -5512.875950       0.000000       0.000000       0.000000   25149.228156  -31681.514696    1019.410590 
 3320000     293.014195   -4657.050874   -5531.343952       0.000000       0.000000       0.000000   25082.008565  -31679.443209    1066.090692 
 3330000     301.964076   -4634.624350   -5535.622002       0.000000       0.000000       0.000000   25073.854981  -31681.879688    1072.402705 
 3340000     304.523236   -4610.587867   -5519.221513       0.000000       0.000000       0.000000   25060.260938  -31681.585396    1102.102945 
 3350000     288.541564   -4674.786380   -5535.734061       0.000000       0.000000       0.000000   24982.909523  -31679.783865    1161.140281 
 3360000     306.155399   -4574.360125   -5487.863805       0.000000       0.000000       0.000000   25121.245425  -31682.243080    1073.133850 
 3370000     290.695950   -4665.195611   -5532.571530       0.000000       0.000000       0.000000   25019.638881  -31684.835956    1132.625545 
 3380000     283.852830   -4709.391994   -5556.349473       0.000000       0.000000       0.000000   25063.658400  -31681.168007    1061.160135 
 3390000     298.191687   -4619.278652   -5509.020282       0.000000       0.000000       0.000000   25050.224990  -31682.815433    1123.570161 
 3400000     309.576195   -4629.343596   -5553.054218       0.000000       0.000000       0.000000   25045.134276  -31684.548942    1086.360448 
 3410000     295.577397   -4658.849096   -5540.790232       0.000000       0.000000       0.000000   25038.298386  -31684.285739    1105.197122 
 3420000     295.895274   -4624.709378   -5507.598991       0.000000       0.000000       0.000000   25101.542410  -31681.931564    1072.790164 
 3430000     306.247038   -4641.450412   -5555.227524       0.000000       0.000000       0.000000   25024.284669  -31686.069711    1106.557519 
 3440000     312.113569   -4630.455731   -5561.737346       0.000000       0.000000       0.000000   25017.680335  -31677.845587    1098.427905 
 3450000     304.628319   -4647.187648   -5556.134841       0.000000       0.000000       0.000000   25060.282658  -31682.557618    1066.140119 
 3460000     294.987182   -4676.217966   -5556.398023       0.000000       0.000000       0.000000   25052.796547  -31684.304771    1075.110201 
 3470000     306.321140   -4629.456372   -5543.454591       0.000000       0.000000       0.000000   25058.979390  -31681.992811    1079.558830 
 3480000     299.498123   -4659.523444   -5553.163206       0.000000       0.000000       0.000000   25008.054649  -31681.893624    1120.675770 
 3490000     303.462194   -4655.876214   -5561.343935       0.000000       0.000000       0.000000   25011.898262  -31685.620230    1112.378032 
 3500000     301.196485   -4651.529887   -5550.237206       0.000000       0.000000       0.000000   25071.169012  -31683.362261    1061.956044 
 3510000     295.148979   -4634.304214   -5514.967040       0.000000       0.000000       0.000000   25124.171035  -31678.460771    1039.322697 
 3520000     289.334463   -4658.915156   -5522.228684       0.000000       0.000000       0.000000   25046.989269  -31681.000046    1111.782094 
 3530000     294.229287   -4642.780158   -5520.698813       0.000000       0.000000       0.000000   24951.644470  -31679.092194    1206.748911 
 3540000     308.183604   -4638.295664   -5557.851083       0.000000       0.000000       0.000000   25060.700230  -31680.530777    1061.979464 
 3550000     304.031183   -4639.126269   -5546.291734       0.000000       0.000000       0.000000   25013.030440  -31680.329587    1121.007414 
 3560000     308.931160   -4615.371561   -5537.157532       0.000000       0.000000       0.000000   24997.479281  -31680.623429    1145.986616 
 3570000     300.153174   -4621.014106   -5516.608403       0.000000       0.000000       0.000000   25126.376760  -31682.195335    1039.210172 
 3580000     306.719353   -4635.306987   -5550.493388       0.000000       0.000000       0.000000   24982.738246  -31686.748561    1153.516926 
 3590000     294.412214   -4673.489284   -5551.953757       0.000000       0.000000       0.000000   25014.603870  -31681.299271    1114.741643 
 3600000     290.697747   -4584.671628   -5452.052910       0.000000       0.000000       0.000000   25120.062412  -31681.694117    1109.578795 
 3610000     287.092663   -4661.233340   -5517.857804       0.000000       0.000000       0.000000   25015.414832  -31682.837475    1149.564839 
 3620000     299.676620   -4659.872029   -5554.044389       0.000000       0.000000       0.000000   25078.901470  -31681.616652    1048.670794 
 3630000     294.054982   -4681.816392   -5559.214959       0.000000       0.000000       0.000000   24974.415846  -31682.429437    1148.798631 
 3640000     305.616500   -4643.691844   -5555.587564       0.000000       0.000000       0.000000   24950.196994  -31679.347003    1173.562444 
 3650000     302.160752   -4587.598925   -5489.183415       0.000000       0.000000       0.000000   25035.340088  -31682.132740    1157.609237 
 3660000     292.338472   -4638.491507   -5510.768368       0.000000       0.000000       0.000000   25096.605127  -31682.138471    1074.764976 
 3670000     296.292481   -4656.203103   -5540.277899       0.000000       0.000000       0.000000   24992.947643  -31677.038045    1143.812503 
 3680000     296.442704   -4640.620003   -5525.143032       0.000000       0.000000       0.000000   25006.392815  -31678.976729    1147.440882 
 3690000     299.918708   -4627.464490   -5522.359189       0.000000       0.000000       0.000000   24957.588433  -31678.273624    1198.326003 
 3700000     315.258779   -4577.087411   -5517.753673       0.000000       0.000000       0.000000   25086.272888  -31679.255231    1075.228670 
 3710000     292.927453   -4611.529246   -5485.563502       0.000000       0.000000       0.000000   25051.816811  -31682.591379    1145.211067 
 3720000     284.976463   -4699.792133   -5550.102299       0.000000       0.000000       0.000000   25060.011399  -31682.635862    1072.522164 
 3730000     307.113208   -4657.199981   -5573.561565       0.000000       0.000000       0.000000   25018.193391  -31685.877474    1094.122517 
 3740000     301.238384   -4616.801189   -5515.633526       0.000000       0.000000       0.000000   24999.448257  -31680.284189    1165.202406 
 3750000     300.491907   -4638.826623   -5535.431627       0.000000       0.000000       0.000000   25050.233418  -31681.668233    1096.003188 
 3760000     306.936968   -4577.986135   -5493.821856       0.000000       0.000000       0.000000   25075.081382  -31680.401338    1111.498100 
 3770000     306.963991   -4553.755138   -5469.671487       0.000000       0.000000       0.000000   25133.378525  -31680.560430    1077.510418 
 3780000     300.846932   -4624.157145   -5521.821471       0.000000       0.000000       0.000000   25084.705873  -31682.473298    1075.945954 
 3790000     309.282693   -4569.058255   -5491.893128       0.000000       0.000000       0.000000   25065.801134  -31679.735834    1122.041573 
 3800000     299.695434   -4667.927821   -5562.156318       0.000000       0.000000       0.000000   25009.087775  -31688.128063    1116.883970 
 3810000     300.021841   -4675.460737   -5570.663163       0.000000       0.000000       0.000000   24964.359465  -31684.368440    1149.345813 
 3820000     294.407099   -4607.493289   -5485.942499       0.000000       0.000000       0.000000   25157.277851  -31676.872761    1033.652412 
 3830000     305.659756   -4557.758367   -5469.783153       0.000000       0.000000       0.000000   25195.935759  -31681.600665    1015.881753 
 3840000     304.920119   -4617.362985   -5527.180849       0.000000       0.000000       0.000000   25043.312444  -31686.311927    1115.818633 
 3850000     320.448909   -4547.069265   -5503.221790       0.000000       0.000000       0.000000   25093.996164  -31681.838634    1084.620680 
 3860000     294.236078   -4634.060714   -5511.999634       0.000000       0.000000       0.000000   25089.704317  -31681.405851    1079.701900 
 3870000     302.491117   -4634.953531   -5537.523760       0.000000       0.000000       0.000000   25037.495633  -31682.087430    1107.068037 
 3880000     312.691564   -4566.196970   -5499.203202       0.000000       0.000000       0.000000   25082.809111  -31682.959829    1100.947516 
 3890000     289.791903   -4647.509202   -5512.187633       0.000000       0.000000       0.000000   25011.943323  -31681.362071    1157.231115 
 3900000     301.572257   -4629.977004   -5529.805548       0.000000       0.000000       0.000000   25124.238174  -31682.231735    1028.188012 
 3910000     313.802381   -4651.337515   -5587.658191       0.000000       0.000000       0.000000   25031.898668  -31680.582420    1061.025560 
 3920000     296.067621   -4624.413600   -5507.817460       0.000000       0.000000       0.000000   25124.748852  -31683.830029    1051.263717 
 3930000     285.708614   -4622.058704   -5474.553454       0.000000       0.000000       0.000000   25165.490179  -31679.846943    1039.803310 
 3940000     302.131999   -4717.642938   -5619.141634       0.000000       0.000000       0.000000   24940.411132  -31690.436640    1130.883873 
 3950000     315.298106   -4647.840182   -5588.623789       0.000000       0.000000       0.000000   24963.933547  -31680.841761    1128.284426 
 3960000     299.464277   -4686.117276   -5579.656049       0.000000       0.000000       0.000000   24992.775009  -31685.764206    1113.333148 
 3970000     297.288211   -4659.445802   -5546.491649       0.000000       0.000000       0.000000   25069.506315  -31682.054047    1066.056082 
 3980000     312.872991   -4588.740011   -5522.287582       0.000000       0.000000       0.000000   25080.122781  -31680.057981    1077.647618 
 3990000     295.737454   -4699.832871   -5582.251583       0.000000       0.000000       0.000000   25009.124222  -31683.349299    1091.973494 
 4000000     298.690343   -4679.571155   -5570.800669       0.000000       0.000000       0.000000   24976.429841  -31678.992753    1131.762243 
 4010000     292.898841   -4642.653120   -5516.602004       0.000000       0.000000       0.000000   25099.953431  -31680.520055    1063.964620 
 4020000     291.181036   -4643.437980   -5512.261294       0.000000       0.000000       0.000000   25075.572185  -31684.230644    1096.397166 
 4030000     300.548348   -4579.832788   -5476.606202       0.000000       0.000000       0.000000   25114.969347  -31675.957678    1084.382129 
 4040000     294.577725   -4668.901818   -5547.860141       0.000000       0.000000       0.000000   25032.599253  -31680.313899    1099.854506 
 4050000     293.955091   -4651.723306   -5528.823819       0.000000       0.000000       0.000000   25056.471177  -31678.436399    1093.141403 
 4060000     310.995993   -4613.885438   -5541.832440       0.000000       0.000000       0.000000   25086.202110  -31682.225594    1054.191044 
 4070000     302.769756   -4604.928514   -5508.330145       0.000000       0.000000       0.000000   25060.623010  -31683.429227    1114.476072 
 4080000     299.660997   -4689.420376   -5583.546119       0.000000       0.000000       0.000000   25014.822929  -31685.566598    1087.197550 
 4090000     299.428065   -4677.037317   -5570.468039       0.000000       0.000000       0.000000   24995.039706  -31683.767472    1118.259727 
 4100000     308.423116   -4575.208033   -5495.478107       0.000000       0.000000       0.000000   25107.593208  -31678.807527    1075.736212 
 4110000     303.226422   -4588.728300   -5493.492525       0.000000       0.000000       0.000000   25093.609770  -31677.731207    1090.628912 
 4120000     294.758378   -4674.426426   -5553.923781       0.000000       0.000000       0.000000   24946.052338  -31682.524975    1182.548855 
 4130000     302.239620   -4643.506804   -5545.326621       0.000000       0.000000       0.000000   25044.679142  -31679.012562    1089.006800 
 4140000     289.729625   -4619.897867   -5484.390472       0.000000       0.000000       0.000000   25067.275761  -31681.409786    1129.743553 
 4150000     289.973598   -4614.467564   -5479.688135       0.000000       0.000000       0.000000   25075.516117  -31680.945292    1125.741040 
 4160000     288.830817   -4727.123534   -5588.934286       0.000000       0.000000       0.000000   24976.242315  -31685.803722    1120.627120 
 4170000     299.803137   -4659.927168   -5554.477028       0.000000       0.000000       0.000000   25064.287376  -31678.302850    1059.538447 
 4180000     294.156606   -4685.860622   -5563.562415       0.000000       0.000000       0.000000   24978.745918  -31680.576411    1138.268079 
 4190000     290.242996   -4683.701010   -5549.725408       0.000000       0.000000       0.000000   25050.695914  -31679.872304    1079.450983 
 4200000     306.638901   -4656.625985   -5571.572336       0.000000       0.000000       0.000000   24989.109313  -31684.626935    1123.945286 
 4210000     301.653572   -4566.018125   -5466.089297       0.000000       0.000000       0.000000   25166.712789  -31680.802018    1047.999932 
 4220000     303.724463   -4699.753742   -5606.004020       0.000000       0.000000       0.000000   24927.300336  -31686.926541    1153.622185 
 4230000     299.721628   -4637.370077   -5531.676732       0.000000       0.000000       0.000000   24973.316375  -31682.808886    1177.815779 
 4240000     288.853972   -4710.427024   -5572.306864       0.000000       0.000000       0.000000   24949.231158  -31683.851814    1162.313792 
 4250000     310.302842   -4649.022928   -5574.901713       0.000000       0.000000       0.000000   24998.919901  -31680.745472    1106.923858 
 4260000     311.976651   -4635.676693   -5566.549773       0.000000       0.000000       0.000000   24980.704778  -31680.901481    1133.646930 
 4270000     303.062840   -4635.767315   -5540.043447       0.000000       0.000000       0.000000   24936.641850  -31681.401762    1204.716465 
 4280000     305.682620   -4593.928048   -5506.021057       0.000000       0.000000       0.000000   25127.170272  -31680.587820    1047.396491 
 4290000     306.694622   -4668.525918   -5583.638527       0.000000       0.000000       0.000000   24937.884940  -31682.685728    1161.162261 
 4300000     290.012478   -4662.562117   -5527.898699       0.000000       0.000000       0.000000   25057.000949  -31683.990339    1099.090691 
 4310000     293.474194   -4670.103270   -5545.768887       0.000000       0.000000       0.000000   25008.228121  -31684.867376    1130.870368 
 4320000     285.586793   -4710.848818   -5562.980082       0.000000       0.000000       0.000000   25014.729619  -31684.331569    1106.621868 
 4330000     299.868234   -4663.721825   -5558.465922       0.000000       0.000000       0.000000   24999.318234  -31680.267466    1122.483310 
 4340000     294.850200   -4680.227049   -5559.998380       0.000000       0.000000       0.000000   24990.076109  -31680.885128    1130.810639 
 4350000     294.040179   -4702.346774   -5579.701171       0.000000       0.000000       0.000000   25056.697657  -31685.215479    1048.816652 
 4360000     295.870833   -4642.737365   -5525.554054       0.000000       0.000000       0.000000   25124.256517  -31684.222718    1034.412147 
 4370000     295.366200   -4650.323046   -5531.634015       0.000000       0.000000       0.000000   25001.505053  -31680.561760    1147.422692 
 4380000     307.082304   -4594.077726   -5510.347099       0.000000       0.000000       0.000000   25073.048412  -31678.363674    1094.968163 
 4390000     300.900219   -4569.645709   -5467.469031       0.000000       0.000000       0.000000   25076.625769  -31681.896366    1137.801566 
 4400000     317.356773   -4586.098560   -5533.024800       0.000000       0.000000       0.000000   25109.547300  -31686.217078    1043.644977 
 4410000     292.828766   -4674.606230   -5548.346026       0.000000       0.000000       0.000000   25075.477924  -31681.756028    1057.932078 
 4420000     313.323361   -4607.684250   -5542.575630       0.000000       0.000000       0.000000   25081.609301  -31680.460760    1056.275828 
 4430000     294.649010   -4701.804604   -5580.975627       0.000000       0.000000       0.000000   24971.216432  -31685.714960    1133.522901 
 4440000     301.937360   -4634.346534   -5535.264469       0.000000       0.000000       0.000000   24957.631514  -31680.473915    1187.577932 
 4450000     309.306936   -4610.959669   -5533.866878       0.000000       0.000000       0.000000   25023.765209  -31681.018657    1123.386570 
 4460000     295.242792   -4654.673535   -5535.616280       0.000000       0.000000       0.000000   25044.033019  -31679.300130    1099.650831 
 4470000     284.706044   -4703.118904   -5552.622196       0.000000       0.000000       0.000000   25087.061980  -31687.579102    1047.894926 
 4480000     301.099539   -4651.633188   -5550.051239       0.000000       0.000000       0.000000   25011.269903  -31681.533379    1120.212237 
 4490000     300.012766   -4658.142866   -5553.318216       0.000000       0.000000       0.000000   25108.968110  -31683.008580    1020.722254 
 4500000     297.785185   -4579.169985   -5467.698698       0.000000       0.000000       0.000000   25162.382146  -31680.374356    1050.293511 
 4510000     292.817706   -4636.362334   -5510.069129       0.000000       0.000000       0.000000   25094.654514  -31681.506107    1076.782465 
 4520000     294.862854   -4630.989814   -5510.798903       0.000000       0.000000       0.000000   25115.167808  -31681.702878    1055.736167 
 4530000     292.262692   -4640.518202   -5512.568950       0.000000       0.000000       0.000000   25049.951296  -31678.997123    1116.476877 
 4540000     294.842980   -4585.661384   -5465.411174       0.000000       0.000000       0.000000   25117.797717  -31682.675059    1099.466169 
 4550000     303.867237   -4618.910628   -5525.586911       0.000000       0.000000       0.000000   25152.791040  -31685.339141    1006.961190 
 4560000     301.111315   -4613.376627   -5511.829817       0.000000       0.000000       0.000000   25108.883705  -31683.580333    1062.866811 
 4570000     306.283158   -4650.795922   -5564.680810       0.000000       0.000000       0.000000   24977.559322  -31686.139442    1143.899311 
 4580000     298.441751   -4661.558039   -5552.045810       0.000000       0.000000       0.000000   25036.891784  -31679.841123    1090.903530 
 4590000     297.879934   -4726.905330   -5615.716754       0.000000       0.000000       0.000000   24936.482930  -31683.751036    1131.551352 
 4600000     298.573109   -4684.494336   -5575.374050       0.000000       0.000000       0.000000   25016.918714  -31681.799786    1089.507023 
 4610000     291.349021   -4657.109012   -5526.433560       0.000000       0.000000       0.000000   25022.442561  -31685.840040    1136.963920 
 4620000     299.633627   -4763.601630   -5657.645708       0.000000       0.000000       0.000000   24875.230097  -31686.498722    1153.622917 
 4630000     288.300390   -4706.831327   -5567.059395       0.000000       0.000000       0.000000   25003.420007  -31682.534752    1112.055350 
 4640000     305.508753   -4654.958161   -5566.532386       0.000000       0.000000       0.000000   24994.731124  -31682.103721    1120.840211 
 4650000     305.831580   -4640.819329   -5553.356801       0.000000       0.000000       0.000000   25039.610192  -31682.692855    1089.725861 
 4660000     307.290716   -4645.926989   -5562.818219       0.000000       0.000000       0.000000   25070.933292  -31685.131068    1051.379557 
 4670000     295.534559   -4605.493719   -5487.307035       0.000000       0.000000       0.000000   25074.946791  -31681.904090    1119.650264 
 4680000     303.897100   -4646.521929   -5553.287318       0.000000       0.000000       0.000000   25006.179252  -31683.495808    1124.029238 
 4690000     303.365400   -4667.235533   -5572.414442       0.000000       0.000000       0.000000   25053.559443  -31685.010021    1059.036137 
 4700000     302.730759   -4589.382652   -5492.667924       0.000000       0.000000       0.000000   25074.160031  -31683.793958    1116.966003 
 4710000     316.322007   -4563.594003   -5507.432716       0.000000       0.000000       0.000000   25073.155154  -31679.548307    1098.960437 
 4720000     306.795946   -4669.551649   -5584.966590       0.000000       0.000000       0.000000   25024.777747  -31686.418966    1076.674628 
 4730000     296.688233   -4671.717187   -5556.972824       0.000000       0.000000       0.000000   24953.696947  -31680.957182    1170.287411 
 4740000     297.201083   -4627.830569   -5514.616443       0.000000       0.000000       0.000000   25065.201889  -31679.538498    1099.720165 
 4750000     307.034364   -4601.948779   -5518.075108       0.000000       0.000000       0.000000   25121.542086  -31680.755731    1041.138537 
 4760000     301.712113   -4683.346658   -5583.592504       0.000000       0.000000       0.000000   25019.350660  -31683.516179    1080.573015 
 4770000     300.411861   -4573.433687   -5469.799852       0.000000       0.000000       0.000000   25094.398071  -31676.279388    1112.081465 
 4780000     306.827408   -4595.158491   -5510.667307       0.000000       0.000000       0.000000   25032.873919  -31681.589973    1138.048747 
 4790000     286.245241   -4663.486046   -5517.581980       0.000000       0.000000       0.000000   25093.191125  -31679.165182    1068.392078 
 4800000     296.747412   -4685.654618   -5571.086833       0.000000       0.000000       0.000000   25000.306054  -31682.887617    1111.494730 
 4810000     300.994230   -4608.243142   -5506.346973       0.000000       0.000000       0.000000   25121.931624  -31685.223792    1056.945195 
 4820000     302.949439   -4665.389789   -5569.327556       0.000000       0.000000       0.000000   25007.471876  -31683.739141    1106.939709 
 4830000     306.026243   -4623.400657   -5536.518965       0.000000       0.000000       0.000000   25026.512259  -31681.339431    1118.308206 
 4840000     289.484397   -4656.580483   -5520.341381       0.000000       0.000000       0.000000   25031.328922  -31681.630664    1129.960362 
 4850000     293.174889   -4609.850634   -5484.623188       0.000000       0.000000       0.000000   25089.142687  -31682.618278    1108.852403 
 4860000     287.553070   -4683.385408   -5541.383629       0.000000       0.000000       0.000000   25078.972893  -31682.246016    1061.889494 
 4870000     300.451861   -4670.559403   -5567.044921       0.000000       0.000000       0.000000   25036.637759  -31680.461520    1076.778840 
 4880000     298.754239   -4622.519584   -5513.939753       0.000000       0.000000       0.000000   25060.528844  -31681.465856    1106.997259 
 4890000     294.501023   -4602.028070   -5480.757531       0.000000       0.000000       0.000000   25125.128858  -31681.952565    1076.066176 
 4900000     300.912975   -4644.198986   -5542.060371       0.000000       0.000000       0.000000   25123.827560  -31686.571209    1020.683277 
 4910000     308.256135   -4586.102087   -5505.873925       0.000000       0.000000       0.000000   25116.744582  -31683.015125    1060.396618 
 4920000     300.338740   -4609.333204   -5505.481191       0.000000       0.000000       0.000000   25103.874613  -31684.846987    1075.491183 
 4930000     298.114286   -4668.293746   -5557.804427       0.000000       0.000000       0.000000   24991.553577  -31684.204937    1134.846933 
 4940000     297.069087   -4638.977893   -5525.369919       0.000000       0.000000       0.000000   25113.128452  -31678.053938    1039.555567 
 4950000     300.372771   -4638.466567   -5534.716094       0.000000       0.000000       0.000000   25033.469813  -31681.718482    1113.532575 
 4960000     303.260306   -4712.466560   -5617.331890       0.000000       0.000000       0.000000   24964.220548  -31686.596986    1105.044548 
 4970000     300.236330   -4589.849287   -5485.691704       0.000000       0.000000       0.000000   25062.362124  -31682.227742    1134.173915 
 4980000     307.069002   -4569.894376   -5486.124059       0.000000       0.000000       0.000000   25104.086356  -31677.420834    1087.210419 
 4990000     303.225926   -4632.398220   -5537.160966       0.000000       0.000000       0.000000   25079.345262  -31681.028960    1064.522732 
 5000000     286.875836   -4657.866799   -5513.844298       0.000000       0.000000       0.000000   25145.096892  -31685.185380    1026.244190 
Loop time of 9738.85 on 8 procs for 5000000 steps with 1503 atoms

Performance: 44.358 ns/day, 0.541 hours/ns, 513.408 timesteps/s
99.2% CPU use with 8 MPI tasks x 1 OpenMP threads

MPI task timing breakdown:
Section |  min time  |  avg time  |  max time  |%varavg| %total
---------------------------------------------------------------
Pair    | 4873.8     | 4888.3     | 4903.1     |  17.0 | 50.19
Bond    | 1.3679     | 1.4769     | 1.615      |   7.2 |  0.02
Kspace  | 2609.9     | 2626.2     | 2641.4     |  24.6 | 26.97
Neigh   | 351.58     | 351.79     | 351.98     |   0.8 |  3.61
Comm    | 448.9      | 456.66     | 471.86     |  29.9 |  4.69
Output  | 2.2818     | 2.6664     | 2.8955     |  11.0 |  0.03
Modify  | 1332.2     | 1378.2     | 1387.2     |  47.0 | 14.15
Other   |            | 33.56      |            |       |  0.34

Nlocal:    187.875 ave 194 max 183 min
Histogram: 2 0 1 1 0 1 1 1 0 1
Nghost:    4525.12 ave 4570 max 4483 min
Histogram: 1 0 2 1 1 0 0 1 0 2
Neighs:    66436.8 ave 68622 max 64900 min
Histogram: 2 0 1 2 0 0 1 1 0 1

Total # of neighbors = 531494
Ave neighs/atom = 353.622
Ave special neighs/atom = 2
Neighbor list builds = 216849
Dangerous builds = 0
Total wall time: 3:14:59
