LAMMPS (3 Mar 2020)
  using 1 OpenMP thread(s) per MPI task
Reading data file ...
  orthogonal box = (0 0 0) to (24 24 24)
  2 by 2 by 2 MPI processor grid
  reading atoms ...
  1503 atoms
  scanning bonds ...
  2 = max bonds/atom
  scanning angles ...
  1 = max angles/atom
  reading bonds ...
  1002 bonds
  reading angles ...
  501 angles
Finding 1-2 1-3 1-4 neighbors ...
  special bond factors lj:   0          0          0         
  special bond factors coul: 0          0          0         
  2 = max # of 1-2 neighbors
  1 = max # of 1-3 neighbors
  1 = max # of 1-4 neighbors
  2 = max # of special neighbors
  special bonds CPU = 0.00114879 secs
  read_data CPU = 0.00763391 secs
Setting atom values ...
  1 settings made for charge
Setting atom values ...
  2 settings made for charge
Finding SHAKE clusters ...
  0 = # of size 2 clusters
  0 = # of size 3 clusters
  0 = # of size 4 clusters
  501 = # of frozen angles
  find clusters CPU = 0.000450738 secs
PPPM initialization ...
  using 12-bit tables for long-range coulomb (src/kspace.cpp:332)
  G vector (1/distance) = 0.315108
  grid = 24 24 24
  stencil order = 5
  estimated absolute RMS force accuracy = 0.00171057
  estimated relative force accuracy = 5.15132e-06
  using double precision MKL FFT
  3d grid and FFT values/proc = 6859 1728
Neighbor list info ...
  update every 1 steps, delay 10 steps, check yes
  max neighbors/atom: 2000, page size: 100000
  master list distance cutoff = 12
  ghost atom cutoff = 12
  binsize = 6, bins = 4 4 4
  3 neighbor lists, perpetual/occasional/extra = 3 0 0
  (1) pair lj/cut/coul/long, perpetual, skip from (3)
      attributes: half, newton on
      pair build: skip
      stencil: none
      bin: none
  (2) pair lj/cut/coul/long/soft, perpetual, skip from (3)
      attributes: half, newton on
      pair build: skip
      stencil: none
      bin: none
  (3) neighbor class addition, perpetual
      attributes: half, newton on
      pair build: half/bin/newton
      stencil: half/bin/3d/newton
      bin: standard
Per MPI rank memory allocation (min/avg/max) = 9.721 | 9.727 | 9.731 Mbytes
Step TotEng PotEng E_coul E_long E_vdwl 
       0   -5540.820567204963   -5540.820567204963   25129.074856212566  -31780.800916542154    1110.905493124624 
    1000   -5538.663543806913   -5538.663543806913   25125.360935082994  -31784.676780056958    1120.652301167053 
    2000   -5553.746038521374   -5553.746038521374   25152.536748587318  -31782.467785695622    1076.184998586930 
    3000   -5504.278135936111   -5504.278135936111   25241.981170753766  -31778.129578703491    1031.870272013617 
    4000   -5548.516519021461   -5548.516519021461   25130.242116898378  -31784.342450404474    1105.583814484632 
    5000   -5501.162925429908   -5501.162925429908   25269.704156538890  -31784.651972453965    1013.784890485163 
    6000   -5497.500577313473   -5497.500577313473   25162.548297597637  -31780.669404203010    1120.620529291898 
    7000   -5543.702695102937   -5543.702695102937   25114.063857894293  -31780.869543531626    1123.102990534398 
    8000   -5463.376251835329   -5463.376251835329   25200.749137174411  -31781.843702548915    1117.718313539172 
    9000   -5526.319597040292   -5526.319597040292   25137.839818011933  -31782.000357083522    1117.840942031290 
   10000   -5526.857653315121   -5526.857653315121   25180.822250324851  -31786.141887800142    1078.461984160167 
   11000   -5532.715425603874   -5532.715425603874   25135.518036603738  -31782.574518450787    1114.341056243170 
   12000   -5477.573094431729   -5477.573094431729   25279.038465216581  -31776.205104426317    1019.593544778005 
   13000   -5516.436138331126   -5516.436138331126   25119.585353063485  -31780.916617318282    1144.895125923675 
   14000   -5507.662639203583   -5507.662639203583   25210.799941171994  -31780.338641636834    1061.876061261257 
   15000   -5539.115099665720   -5539.115099665720   25126.685220538478  -31781.755388372159    1115.955068167955 
   16000   -5535.368933015950   -5535.368933015950   25130.851211207511  -31780.850116562666    1114.629972339203 
   17000   -5515.139238672935   -5515.139238672935   25207.148523259206  -31782.656403952271    1060.368642020127 
   18000   -5453.056317406921   -5453.056317406921   25279.295673446191  -31780.563775155038    1048.211784301927 
   19000   -5493.749553422458   -5493.749553422458   25213.877310572818  -31778.455689935945    1070.828825940669 
   20000   -5517.856858141273   -5517.856858141273   25149.000173320670  -31778.996361504785    1112.139330042842 
   21000   -5471.139323284333   -5471.139323284333   25206.618652476282  -31779.064068536456    1101.306092775845 
   22000   -5511.970091905925   -5511.970091905925   25203.088106266703  -31782.566627885375    1067.508429712750 
   23000   -5487.714894722649   -5487.714894722649   25242.761286434496  -31782.153746545206    1051.677565388061 
   24000   -5495.652414722146   -5495.652414722146   25150.006803630113  -31782.618206707502    1136.958988355242 
   25000   -5523.189431580089   -5523.189431580089   25149.521663483669  -31781.318418008428    1108.607322944671 
   26000   -5540.315045986568   -5540.315045986568   25185.945868157705  -31781.305423940903    1055.044509796628 
   27000   -5549.011117505852   -5549.011117505852   25161.062777941948  -31786.413864584127    1076.339969136329 
   28000   -5490.313975892750   -5490.313975892750   25204.016790067391  -31781.254465832026    1086.923699871887 
   29000   -5491.929344496955   -5491.929344496955   25241.341530313672  -31782.093795459670    1048.822920649042 
   30000   -5511.339633512122   -5511.339633512122   25188.388480117166  -31779.499751933443    1079.771638304155 
   31000   -5581.583148398775   -5581.583148398775   25118.981284973590  -31784.314543191849    1083.750109819491 
   32000   -5550.768763303087   -5550.768763303087   25122.779662408691  -31781.680250460540    1108.131824748761 
   33000   -5573.854920485246   -5573.854920485246   25071.792855477586  -31784.495880412644    1138.848104449813 
   34000   -5485.892908306774   -5485.892908306774   25157.108274120688  -31776.930274719365    1133.929092291902 
   35000   -5491.032799585770   -5491.032799585770   25298.327353106728  -31776.610667203608     987.250514511106 
   36000   -5516.361168854815   -5516.361168854815   25157.346958502188  -31781.797576887031    1108.089449530027 
   37000   -5522.476426261528   -5522.476426261528   25159.989830674211  -31778.164135728883    1095.697878793148 
   38000   -5512.361921116742   -5512.361921116742   25198.199729304099  -31780.182991082402    1069.621340661565 
   39000   -5599.211377764776   -5599.211377764776   25042.313989747454  -31781.138954879352    1139.613587367119 
   40000   -5535.055138438060   -5535.055138438060   25144.726846330850  -31782.679299378269    1102.897314609362 
   41000   -5567.801326465986   -5567.801326465986   25111.124475277287  -31779.872121850873    1100.946320107596 
   42000   -5555.976569542669   -5555.976569542669   25149.493371165416  -31782.549230622244    1077.079289914161 
   43000   -5535.539421041340   -5535.539421041340   25188.825712173719  -31786.572780352511    1062.207647137453 
   44000   -5532.335685047656   -5532.335685047656   25161.437896416286  -31782.483438392312    1088.709856928371 
   45000   -5460.348974985809   -5460.348974985809   25239.024751698882  -31785.885742745155    1086.512016060461 
   46000   -5510.872169310886   -5510.872169310886   25163.709942993934  -31780.746676313796    1106.164564008982 
   47000   -5517.720149865869   -5517.720149865869   25154.508841605817  -31780.920256846202    1108.691265374518 
   48000   -5505.147060458894   -5505.147060458894   25136.074931181956  -31783.217734803638    1141.995743162789 
   49000   -5492.265598919475   -5492.265598919475   25209.486580454519  -31781.606407188596    1079.854227814605 
   50000   -5549.303807024997   -5549.303807024997   25026.702984303345  -31779.428539512606    1203.421748184262 
   51000   -5492.671341165729   -5492.671341165729   25192.806685854575  -31779.022496961967    1093.544469941666 
   52000   -5538.237293578110   -5538.237293578110   25180.322192058964  -31783.448177956012    1064.888692318935 
   53000   -5480.874192110037   -5480.874192110037   25217.753231308634  -31782.041734950282    1083.414311531609 
   54000   -5546.834815489659   -5546.834815489659   25170.863111315317  -31780.012628889133    1062.314702084157 
   55000   -5592.451396723001   -5592.451396723001   25090.230663997132  -31782.684337905550    1100.002277185420 
   56000   -5521.991084944901   -5521.991084944901   25142.573600419601  -31784.472586677177    1119.907901312676 
   57000   -5524.390389860502   -5524.390389860502   25200.257885049657  -31784.467201305837    1059.818926395679 
   58000   -5506.734514024000   -5506.734514024000   25229.539254828760  -31784.820743706910    1048.546974854151 
   59000   -5594.322739651623   -5594.322739651623   25099.523485853300  -31784.443495727610    1090.597270222681 
   60000   -5539.863337632323   -5539.863337632323   25141.110678729739  -31783.232190210420    1102.258173848357 
   61000   -5493.607973572405   -5493.607973572405   25154.364151397960  -31782.290960585382    1134.318835615019 
   62000   -5541.346498726482   -5541.346498726482   25121.591480623676  -31782.874658858986    1119.936679508831 
   63000   -5540.065213658450   -5540.065213658450   25178.465261077177  -31786.907000821666    1068.376526086037 
   64000   -5545.776524211917   -5545.776524211917   25141.873541767894  -31784.129685513537    1096.479619533722 
   65000   -5474.862751966768   -5474.862751966768   25272.468113477495  -31780.816714164190    1033.485848719931 
   66000   -5477.033768493668   -5477.033768493668   25221.310841566286  -31778.830612787413    1080.486002727461 
   67000   -5526.900645583173   -5526.900645583173   25109.635371919689  -31783.077680285063    1146.541662782202 
   68000   -5480.221970077491   -5480.221970077491   25278.333101509474  -31782.042435646301    1023.487364059330 
   69000   -5568.793924843285   -5568.793924843285   25114.457872916915  -31784.164881663830    1100.913083903625 
   70000   -5551.566619833950   -5551.566619833950   25148.275327254953  -31782.343153350514    1082.501206261612 
   71000   -5499.743514258826   -5499.743514258826   25180.235461510514  -31782.775495467482    1102.796519698144 
   72000   -5505.346895893483   -5505.346895893483   25208.694903739120  -31781.816358882941    1067.774559250340 
   73000   -5491.376618497030   -5491.376618497030   25237.016978160998  -31783.609876359547    1055.216279701518 
   74000   -5556.057545764197   -5556.057545764197   25136.766387715503  -31786.946303501736    1094.122370022038 
   75000   -5522.622937736236   -5522.622937736236   25168.777422846761  -31776.957815235695    1085.557454652702 
   76000   -5520.114802374119   -5520.114802374119   25100.111079214730  -31779.541412599148    1159.315531010300 
   77000   -5527.967704969255   -5527.967704969255   25162.695490227237  -31779.186187998286    1088.522992801797 
   78000   -5504.919401407653   -5504.919401407653   25181.188309207009  -31780.825263865059    1094.717553250403 
   79000   -5559.730094634760   -5559.730094634760   25047.547261276814  -31784.526826048233    1177.249470136659 
   80000   -5590.188299669077   -5590.188299669077   25094.572404300325  -31783.669292740429    1098.908588771021 
   81000   -5594.078636139398   -5594.078636139398   25117.705353169946  -31786.306139555261    1074.522150245916 
   82000   -5555.105904085674   -5555.105904085674   25144.410387012740  -31780.496287870043    1080.979996771629 
   83000   -5591.547318140780   -5591.547318140780   25125.607526925625  -31784.466756207839    1067.311911141431 
   84000   -5543.832943815105   -5543.832943815105   25157.586690166034  -31781.682159084135    1080.262525102997 
   85000   -5550.232496126126   -5550.232496126126   25131.859593337380  -31783.176814714567    1101.084725251061 
   86000   -5506.074574561866   -5506.074574561866   25143.663486800517  -31783.571309538635    1133.833248176252 
   87000   -5496.439224619484   -5496.439224619484   25193.324434578175  -31778.268073317646    1088.504414119986 
   88000   -5497.793247187867   -5497.793247187867   25183.917546001339  -31783.002462578581    1101.291669389372 
   89000   -5489.819765221244   -5489.819765221244   25226.686833635253  -31779.575736635001    1063.069137778503 
   90000   -5530.920911882571   -5530.920911882571   25133.491008166984  -31779.908414823611    1115.496494774055 
   91000   -5524.252004148351   -5524.252004148351   25173.078397411162  -31784.354958635544    1087.024557076034 
   92000   -5538.051196430792   -5538.051196430792   25193.671723187894  -31778.909009992549    1047.186090373863 
   93000   -5525.605206858174   -5525.605206858174   25171.845102673418  -31782.634200228560    1085.183890696966 
   94000   -5549.641844194881   -5549.641844194881   25173.472173144317  -31783.109647829882    1059.995630490684 
   95000   -5576.769253652012   -5576.769253652012   25070.735437895775  -31786.226794226637    1138.722102678845 
   96000   -5533.298483927640   -5533.298483927640   25108.672020702958  -31781.261020554943    1139.290515924347 
   97000   -5568.012607160694   -5568.012607160694   25136.366837806363  -31782.580750578549    1078.201305611489 
   98000   -5531.925355484840   -5531.925355484840   25170.110422385023  -31782.779259883100    1080.743482013237 
   99000   -5526.434622660308   -5526.434622660308   25179.149298840530  -31782.590612311644    1077.006690810808 
  100000   -5539.618397382506   -5539.618397382506   25151.949533549367  -31783.293894294151    1091.725963362272 
  101000   -5488.657989039984   -5488.657989039984   25234.906217792610  -31784.128404082450    1060.564197249860 
  102000   -5495.873044748962   -5495.873044748962   25227.730866686325  -31783.554142693964    1059.950231258679 
  103000   -5516.316648871507   -5516.316648871507   25142.714751695894  -31784.531508971941    1125.500108404543 
  104000   -5501.960311833489   -5501.960311833489   25262.825229969487  -31784.085776623422    1019.300234820444 
  105000   -5552.898367642149   -5552.898367642149   25110.249115487088  -31783.515065331980    1120.367582202744 
  106000   -5499.563561114206   -5499.563561114206   25211.383088478113  -31782.471636439768    1071.524986847456 
  107000   -5497.887810644443   -5497.887810644443   25150.272367164565  -31781.096774660942    1132.936596851933 
  108000   -5515.626657080596   -5515.626657080596   25241.939645405586  -31780.085097164618    1022.518794678440 
  109000   -5516.042248619378   -5516.042248619378   25143.240574133684  -31783.228170537619    1123.945347784559 
  110000   -5510.881044986476   -5510.881044986476   25185.424583562388  -31782.099672524542    1085.794043975678 
  111000   -5501.087020623399   -5501.087020623399   25156.296659552434  -31779.465693812715    1122.082013636878 
  112000   -5511.737856012227   -5511.737856012227   25242.853659253615  -31777.848550927250    1023.257035661408 
  113000   -5474.291961251347   -5474.291961251347   25193.615068036030  -31781.582726535413    1113.675697248035 
  114000   -5487.834198930126   -5487.834198930126   25185.971687584955  -31782.435751977486    1108.629865462401 
  115000   -5517.716660630926   -5517.716660630926   25196.244994764969  -31783.639660570043    1069.678005174147 
  116000   -5491.914286791314   -5491.914286791314   25266.267518304150  -31785.010107271537    1026.828302176073 
  117000   -5472.961421766482   -5472.961421766482   25245.514734639557  -31781.341998051881    1062.865841645842 
  118000   -5552.017857111379   -5552.017857111379   25085.671261504380  -31782.522313907921    1144.833195292162 
  119000   -5567.947921432464   -5567.947921432464   25013.767440042353  -31780.589312758195    1198.873951283378 
  120000   -5499.059206948838   -5499.059206948838   25224.739918668922  -31782.783061697424    1058.983936079662 
  121000   -5558.986112152525   -5558.986112152525   25117.193332620627  -31782.626585392143    1106.447140618992 
  122000   -5454.968910692001   -5454.968910692001   25296.061487223451  -31783.985613290002    1032.955215374553 
  123000   -5518.847706780525   -5518.847706780525   25188.414475163314  -31781.852069277535    1074.589887333699 
  124000   -5469.164122056649   -5469.164122056649   25215.252070613034  -31780.437578070520    1096.021385400836 
  125000   -5550.370057053446   -5550.370057053446   25091.359870130087  -31783.039295525694    1141.309368342163 
  126000   -5498.517472363830   -5498.517472363830   25160.405683096134  -31780.822268685006    1121.899113225043 
  127000   -5578.291176811017   -5578.291176811017   25053.916223189539  -31782.223520302588    1150.016120302030 
  128000   -5523.585034240896   -5523.585034240896   25185.560991894665  -31783.498726832528    1074.352700696968 
  129000   -5594.474922580390   -5594.474922580390   25148.387620319045  -31782.538794946398    1039.676252046961 
  130000   -5533.509446350014   -5533.509446350014   25155.958881426603  -31783.826241235496    1094.357913458881 
  131000   -5482.869282075568   -5482.869282075568   25190.134426475222  -31783.773305121755    1110.769596570966 
  132000   -5529.515621137776   -5529.515621137776   25165.835685111433  -31778.740815366666    1083.389509117454 
  133000   -5605.424944375489   -5605.424944375489   24995.404245379159  -31784.697898804690    1183.868709050042 
  134000   -5480.472789374377   -5480.472789374377   25210.616758806409  -31782.518779086640    1091.429230905856 
  135000   -5514.366582202147   -5514.366582202147   25075.758268400525  -31784.082645893646    1193.957795290978 
  136000   -5562.717485956855   -5562.717485956855   25156.747667201475  -31783.909285251102    1064.444132092775 
  137000   -5535.240266970213   -5535.240266970213   25157.642634423715  -31783.810038935550    1090.927137541615 
  138000   -5506.820926133736   -5506.820926133736   25298.356613332086  -31783.680812709270     978.503273243451 
  139000   -5447.481718272771   -5447.481718272771   25274.230377013839  -31785.363723595372    1063.651628308762 
  140000   -5507.383682087286   -5507.383682087286   25226.748033797361  -31786.551840771568    1052.420124886924 
  141000   -5526.594721745543   -5526.594721745543   25208.084363873313  -31783.342263962819    1048.663178343960 
  142000   -5511.715247191365   -5511.715247191365   25237.585837943552  -31778.606109340290    1029.305024205373 
  143000   -5560.295907054700   -5560.295907054700   25156.629621605072  -31784.461665071445    1067.536136411673 
  144000   -5503.617325594550   -5503.617325594550   25189.105346715514  -31781.759752480946    1089.037080170874 
  145000   -5532.449144292412   -5532.449144292412   25145.248172229956  -31784.743055567560    1107.045739045195 
  146000   -5580.566987582384   -5580.566987582384   25052.409519878394  -31784.239354188125    1151.262846727345 
  147000   -5484.311228777704   -5484.311228777704   25230.081346666513  -31784.556374299103    1070.163798854881 
  148000   -5567.466129310051   -5567.466129310051   25146.044397753725  -31784.380993339233    1070.870466275454 
  149000   -5467.687689030165   -5467.687689030165   25167.236517689111  -31783.086271184118    1148.162064464839 
  150000   -5576.854392608380   -5576.854392608380   25099.318411116958  -31779.397007352818    1103.224203627477 
  151000   -5487.326933868222   -5487.326933868222   25201.905674714322  -31782.102699255163    1092.870090672623 
  152000   -5532.211260961365   -5532.211260961365   25195.549408667095  -31783.222304099847    1055.461634471385 
  153000   -5579.753036787988   -5579.753036787988   25095.867775882725  -31780.794132754749    1105.173320084035 
  154000   -5522.456144895965   -5522.456144895965   25162.995461341354  -31782.073510368100    1096.621904130779 
  155000   -5496.531641159836   -5496.531641159836   25239.460323130323  -31781.976289955495    1045.984325665335 
  156000   -5477.513930076322   -5477.513930076322   25295.323612133325  -31782.871471642135    1010.033929432490 
  157000   -5514.870627375181   -5514.870627375181   25196.952516684025  -31782.633882121037    1070.810738061830 
  158000   -5486.927483328222   -5486.927483328222   25175.746012704207  -31784.244510562745    1121.571014530316 
  159000   -5520.686265836590   -5520.686265836590   25148.012716488207  -31779.901396134450    1111.202413809653 
  160000   -5575.935661479434   -5575.935661479434   25087.197337666064  -31779.396239721911    1116.263240576410 
  161000   -5589.953919226009   -5589.953919226009   25015.764624332318  -31779.902519744010    1174.183976185686 
  162000   -5516.030501084846   -5516.030501084846   25185.287441387351  -31780.686088066621    1079.368145594418 
  163000   -5416.953443487964   -5416.953443487964   25376.110326258735  -31780.759343875787     987.695574129085 
  164000   -5465.677582365584   -5465.677582365584   25252.904509097265  -31781.681191561896    1063.099100099052 
  165000   -5468.352331799859   -5468.352331799859   25276.024378422662  -31781.246618206620    1036.869907984100 
  166000   -5465.408471261133   -5465.408471261133   25238.026311919093  -31784.548139971273    1081.113356791046 
  167000   -5531.792881872097   -5531.792881872097   25115.627282849466  -31782.033011073130    1134.612846351564 
  168000   -5529.664398583107   -5529.664398583107   25168.050556141945  -31782.925905526536    1085.210950801485 
  169000   -5521.781408504972   -5521.781408504972   25166.909492924180  -31778.025073967034    1089.334172537876 
  170000   -5510.977767439104   -5510.977767439104   25145.880810823470  -31777.937350034292    1121.078771771718 
  171000   -5501.301558061532   -5501.301558061532   25238.468696178694  -31778.154615745792    1038.384361505561 
  172000   -5477.685182335463   -5477.685182335463   25154.044372765609  -31779.266545133367    1147.536990032296 
  173000   -5538.223777311461   -5538.223777311461   25162.822160041003  -31781.337779053010    1080.291841700546 
  174000   -5513.893782250543   -5513.893782250543   25161.825954722903  -31781.942656879379    1106.222919905928 
  175000   -5593.727083388683   -5593.727083388683   25123.116727128865  -31786.055599751355    1069.211789233812 
  176000   -5547.175945834537   -5547.175945834537   25093.755053882924  -31783.288615401776    1142.357615684317 
  177000   -5594.356199658254   -5594.356199658254   25038.584144565153  -31786.667592039252    1153.727247815848 
  178000   -5523.122778097735   -5523.122778097735   25151.347487055464  -31781.234532263297    1106.764267110095 
  179000   -5568.270864776841   -5568.270864776841   25105.900927657709  -31780.543897675518    1106.372105240964 
  180000   -5540.553656058517   -5540.553656058517   25197.101638568958  -31785.046519114883    1047.391224487410 
  181000   -5590.839876450918   -5590.839876450918   25092.224743425249  -31777.915385615430    1094.850765739263 
  182000   -5539.228384144189   -5539.228384144189   25163.442845615478  -31784.172662179859    1081.501432420197 
  183000   -5580.011658384286   -5580.011658384286   25018.145564912134  -31783.455522227476    1185.298298931047 
  184000   -5520.649136308853   -5520.649136308853   25150.571538106084  -31780.843208243507    1109.622533828567 
  185000   -5546.661789400368   -5546.661789400368   25175.803627068126  -31782.400652401368    1059.935235932874 
  186000   -5522.695245081592   -5522.695245081592   25192.166961793853  -31780.714447800437    1065.852240924993 
  187000   -5538.996062555168   -5538.996062555168   25154.213795605334  -31782.032047110093    1088.822188949595 
  188000   -5483.301773828902   -5483.301773828902   25207.295006000684  -31783.900324138489    1093.303544308899 
  189000   -5549.543577125696   -5549.543577125696   25137.754550720485  -31780.876034093602    1093.577906247423 
  190000   -5581.536234069903   -5581.536234069903   25064.645549694382  -31785.696799022888    1139.515015258606 
  191000   -5514.150619796346   -5514.150619796346   25178.664202502609  -31778.838944582752    1086.024122283803 
  192000   -5535.783371275556   -5535.783371275556   25166.294471932095  -31784.700529344700    1082.622686137047 
  193000   -5514.780413408174   -5514.780413408174   25280.758248012142  -31780.667929819807     985.129268399490 
  194000   -5522.708324504965   -5522.708324504965   25174.676318034370  -31781.400387601920    1084.015745062585 
  195000   -5552.669208593488   -5552.669208593488   25121.769731273474  -31784.534737586644    1110.095797719679 
  196000   -5551.500479589475   -5551.500479589475   25146.546272442582  -31787.709987578844    1089.663235546785 
  197000   -5507.194693608562   -5507.194693608562   25171.305470850624  -31782.541172960457    1104.041008501270 
  198000   -5504.272208885719   -5504.272208885719   25195.310254627428  -31784.175897494923    1084.593433981777 
  199000   -5584.850250537966   -5584.850250537966   25020.789096799926  -31785.340206514371    1179.700859176480 
  200000   -5583.625971774291   -5583.625971774291   25100.445376702111  -31783.015419572865    1098.944071096463 
  201000   -5510.861396309614   -5510.861396309614   25142.357413574595  -31783.643743681518    1130.424933797306 
  202000   -5595.478170864961   -5595.478170864961   25053.260510866559  -31783.926365693787    1135.187683962268 
  203000   -5479.517357148172   -5479.517357148172   25156.863064344270  -31782.362096384484    1145.981674892043 
  204000   -5491.743696754402   -5491.743696754402   25223.624554051807  -31781.955327208267    1066.587076402063 
  205000   -5547.165330457890   -5547.165330457890   25123.339368367313  -31783.853663713660    1113.348964888462 
  206000   -5599.110510664770   -5599.110510664770   25004.030464650288  -31780.198007658142    1177.057032343087 
  207000   -5594.771767041420   -5594.771767041420   25078.063660193278  -31784.191400441232    1111.355973206538 
  208000   -5540.799191131802   -5540.799191131802   25163.816838366482  -31783.076944713983    1078.460915215700 
  209000   -5497.628552189100   -5497.628552189100   25241.511516141116  -31781.885577474568    1042.745509144352 
  210000   -5550.982575607828   -5550.982575607828   25049.025835860488  -31783.353140568841    1183.344729100522 
  211000   -5434.174624648622   -5434.174624648622   25330.407692423047  -31781.540634823177    1016.958317751509 
  212000   -5514.060052300654   -5514.060052300654   25152.682429752975  -31782.563296449127    1115.820814395503 
  213000   -5477.004788565537   -5477.004788565537   25293.470618893625  -31783.056139147844    1012.580731688681 
  214000   -5557.833845904261   -5557.833845904261   25159.367073787085  -31780.742124147251    1063.541204455908 
  215000   -5476.489393443659   -5476.489393443659   25147.047752396065  -31778.409321187417    1154.872175347694 
  216000   -5554.557565426785   -5554.557565426785   25139.903675201516  -31775.743923588518    1081.282682960210 
  217000   -5528.773811120711   -5528.773811120711   25177.298308205282  -31785.575433850554    1079.503314524560 
  218000   -5516.387860932631   -5516.387860932631   25108.768399977467  -31779.469107078832    1154.312846168732 
  219000   -5559.419081115328   -5559.419081115328   25140.373903319203  -31782.847616902411    1083.054632467882 
  220000   -5499.823439297845   -5499.823439297845   25171.764121456454  -31785.232933942210    1113.645373187914 
  221000   -5533.198158474446   -5533.198158474446   25174.001521960650  -31786.837749046445    1079.638068611350 
  222000   -5473.468611674627   -5473.468611674627   25244.914741413675  -31780.294991830309    1061.911638742005 
  223000   -5550.533689289918   -5550.533689289918   25127.405399122334  -31783.041820962400    1105.102732550145 
  224000   -5549.433814787466   -5549.433814787466   25115.092196563139  -31783.976295063163    1119.450283712558 
  225000   -5560.637517320323   -5560.637517320323   25013.733066379838  -31786.041893330137    1211.671309629977 
  226000   -5520.272400684666   -5520.272400684666   25086.279421050720  -31784.752979542223    1178.201157806834 
  227000   -5464.609383976491   -5464.609383976491   25269.905289707909  -31780.000018650047    1045.485344965640 
  228000   -5494.566505836883   -5494.566505836883   25169.253408630204  -31783.186871549777    1119.366957082693 
  229000   -5527.024166855888   -5527.024166855888   25133.861423268503  -31776.523342698296    1115.637752573903 
  230000   -5459.701424855211   -5459.701424855211   25214.852540853550  -31782.136441925832    1107.582476217068 
  231000   -5544.977947495056   -5544.977947495056   25150.451742476027  -31779.811964273522    1084.382274302442 
  232000   -5498.842717354462   -5498.842717354462   25192.725403907396  -31786.347793495741    1094.779672233885 
  233000   -5498.887741453764   -5498.887741453764   25210.252657993053  -31776.874526773863    1067.734127327049 
  234000   -5513.269185476976   -5513.269185476976   25150.440518888616  -31778.644315623947    1114.934611258358 
  235000   -5456.127991111265   -5456.127991111265   25192.560531411917  -31777.336115910577    1128.647593387390 
  236000   -5489.114386441222   -5489.114386441222   25236.409021820778  -31778.481190866165    1052.957782604167 
  237000   -5506.117160601960   -5506.117160601960   25179.100627005770  -31778.496361794067    1093.278574186336 
  238000   -5566.087446257508   -5566.087446257508   25153.334467250163  -31786.487263658415    1067.065350150740 
  239000   -5506.088691519562   -5506.088691519562   25138.204963923476  -31782.782598563193    1138.488943120158 
  240000   -5537.139995442019   -5537.139995442019   25210.383103328153  -31784.953107015906    1037.430008245734 
  241000   -5531.033932038728   -5531.033932038728   25148.940664050333  -31783.172323383245    1103.197727294182 
  242000   -5546.942843538443   -5546.942843538443   25121.984599230316  -31781.848744847495    1112.921302078737 
  243000   -5538.386167426972   -5538.386167426972   25094.765965897041  -31782.196012186654    1149.043878862644 
  244000   -5522.609934118289   -5522.609934118289   25116.169853638319  -31779.642474339420    1140.862686582812 
  245000   -5510.733219751368   -5510.733219751368   25129.855571271150  -31784.690005313943    1144.101214291430 
  246000   -5543.562349501048   -5543.562349501048   25176.293940361116  -31782.599748576631    1062.743458714466 
  247000   -5478.558503915265   -5478.558503915265   25241.550123955276  -31779.794485825423    1059.685857954880 
  248000   -5539.094790803945   -5539.094790803945   25146.040491700893  -31784.265214866362    1099.129932361527 
  249000   -5530.458496245104   -5530.458496245104   25087.332266789112  -31782.695842949783    1164.905079915566 
  250000   -5558.640744390992   -5558.640744390992   25106.305121319387  -31782.634619860248    1117.688754149866 
  251000   -5513.378551612070   -5513.378551612070   25174.075636218698  -31781.795775711762    1094.341587880989 
  252000   -5522.686090656942   -5522.686090656942   25201.919189136490  -31784.377550927002    1059.772271133566 
  253000   -5515.935253979660   -5515.935253979660   25247.370903791605  -31780.327487033654    1017.021329262393 
  254000   -5531.564252309501   -5531.564252309501   25125.960393189078  -31780.337435860762    1122.812790362181 
  255000   -5560.927206281827   -5560.927206281827   25156.240737200569  -31784.223050516601    1067.055107034208 
  256000   -5528.291398406403   -5528.291398406403   25101.336315421067  -31780.581860584796    1150.954146757324 
  257000   -5543.158038166719   -5543.158038166719   25198.264513705843  -31784.565097164592    1043.142545292027 
  258000   -5590.436346315131   -5590.436346315131   25036.042016275762  -31780.241969195933    1153.763606605036 
  259000   -5493.244319730569   -5493.244319730569   25156.649716860844  -31780.159855517817    1130.265818926403 
  260000   -5534.961397204162   -5534.961397204162   25075.210614894786  -31785.044161396887    1174.872149297936 
  261000   -5501.848996631630   -5501.848996631630   25247.864196201994  -31782.605062967446    1032.891870133823 
  262000   -5513.396144289702   -5513.396144289702   25174.822346382578  -31780.267374960120    1092.048884287839 
  263000   -5548.720514740256   -5548.720514740256   25091.136478326058  -31776.199467759008    1136.342474692700 
  264000   -5560.308851946040   -5560.308851946040   25128.267167071615  -31786.290370847160    1097.714351829502 
  265000   -5495.144746814174   -5495.144746814174   25228.881587947631  -31784.397608159044    1060.371273397239 
  266000   -5490.854166371846   -5490.854166371846   25194.944660316211  -31776.375711868506    1090.576885180452 
  267000   -5514.637769754940   -5514.637769754940   25166.212190597296  -31780.661441394092    1099.811481041857 
  268000   -5510.495323722331   -5510.495323722331   25075.079047857194  -31775.851006635843    1190.276635056318 
  269000   -5508.151230073123   -5508.151230073123   25169.209694411977  -31783.271751396755    1105.910826911658 
  270000   -5510.665551329617   -5510.665551329617   25164.267303977700  -31782.674491413578    1107.741636106263 
  271000   -5522.308276234860   -5522.308276234860   25193.735568566102  -31787.420665764192    1071.376820963227 
  272000   -5565.608722463345   -5565.608722463345   25174.587944753504  -31780.751459012754    1040.554791795904 
  273000   -5532.651389211380   -5532.651389211380   25147.473857746241  -31777.939350721921    1097.814103764299 
  274000   -5515.526360381733   -5515.526360381733   25171.664965655087  -31783.080955064925    1095.889629028102 
  275000   -5461.893633881507   -5461.893633881507   25221.366425770691  -31780.476574983302    1097.216515331103 
  276000   -5537.471756007268   -5537.471756007268   25174.684546190838  -31779.227832168461    1067.071529970355 
  277000   -5483.047476682979   -5483.047476682979   25231.157283352415  -31780.811625007344    1066.606864971946 
  278000   -5560.536663612776   -5560.536663612776   25062.852386435410  -31785.102324602321    1161.713274554138 
  279000   -5468.062909079799   -5468.062909079799   25255.229940029352  -31778.682548677865    1055.389699568716 
  280000   -5490.537910919800   -5490.537910919800   25201.227579771094  -31779.503754714347    1087.738264023452 
  281000   -5463.514776144821   -5463.514776144821   25305.972541273761  -31779.121736216195    1009.634418797609 
  282000   -5515.520222725008   -5515.520222725008   25233.536318833711  -31778.321594635254    1029.265053076537 
  283000   -5476.419708172260   -5476.419708172260   25252.545516221937  -31781.469181441491    1052.503957047292 
  284000   -5492.975355389506   -5492.975355389506   25222.918342228339  -31783.518469972874    1067.624772355033 
  285000   -5522.508992552081   -5522.508992552081   25240.675221542362  -31782.219901775585    1019.035687681145 
  286000   -5476.178845257167   -5476.178845257167   25201.878452182191  -31778.586764339630    1100.529466900270 
  287000   -5494.984473955657   -5494.984473955657   25240.852539938423  -31777.882315622632    1042.045301728555 
  288000   -5531.153487252563   -5531.153487252563   25142.450183453846  -31778.290335671682    1104.686664965274 
  289000   -5520.367326633550   -5520.367326633550   25115.763146080128  -31780.417547597604    1144.287074883925 
  290000   -5516.820105778101   -5516.820105778101   25186.239669488346  -31782.292566700951    1079.232791434504 
  291000   -5553.670689613038   -5553.670689613038   25149.978843760939  -31783.037765923938    1079.388232549965 
  292000   -5514.568012226759   -5514.568012226759   25180.819372657843  -31784.745574115950    1089.358189231345 
  293000   -5557.842917354392   -5557.842917354392   25152.825932328698  -31781.722926649196    1071.054076966098 
  294000   -5536.882702194314   -5536.882702194314   25126.488070669526  -31783.405379941003    1120.034607077165 
  295000   -5546.990489078431   -5546.990489078431   25157.711971429962  -31778.445317863581    1073.742857355189 
  296000   -5484.453401470117   -5484.453401470117   25217.968178565585  -31781.561760132310    1079.140180096606 
  297000   -5511.323471719326   -5511.323471719326   25236.272041220924  -31782.551791307804    1034.956278367551 
  298000   -5512.040030755954   -5512.040030755954   25192.583044440868  -31784.059011215475    1079.435936018657 
  299000   -5500.479181430248   -5500.479181430248   25200.260223494966  -31778.066911271122    1077.327506345910 
  300000   -5437.846869151283   -5437.846869151283   25276.502124613373  -31780.128482996930    1065.779489232277 
  301000   -5562.013413843044   -5562.013413843044   25130.447021875108  -31785.320276826271    1092.859841108119 
  302000   -5550.915234010667   -5550.915234010667   25163.927503479463  -31782.101245948190    1067.258508458059 
  303000   -5467.412939391510   -5467.412939391510   25217.193813688449  -31784.172238434196    1099.565485354235 
  304000   -5501.938819417472   -5501.938819417472   25164.318698037870  -31784.011416424135    1117.753898968788 
  305000   -5527.902873327163   -5527.902873327163   25185.821952506281  -31782.048698180322    1068.323872346882 
  306000   -5508.981887286442   -5508.981887286442   25206.384255187935  -31778.502660570040    1063.136518095664 
  307000   -5517.933151813315   -5517.933151813315   25216.731332068615  -31779.025082478827    1044.360598596899 
  308000   -5513.903882696603   -5513.903882696603   25225.067499582903  -31783.292423562289    1044.321041282785 
  309000   -5499.299595512828   -5499.299595512828   25241.234490818817  -31784.006695336109    1043.472609004469 
  310000   -5511.364046370472   -5511.364046370472   25255.287164794718  -31781.314598787863    1014.663387622672 
  311000   -5386.181811556511   -5386.181811556511   25417.039726880146  -31775.885991493662     972.664453057004 
  312000   -5508.763712037213   -5508.763712037213   25180.849959810301  -31784.567525323986    1094.953853476469 
  313000   -5498.228801637466   -5498.228801637466   25112.856471014886  -31778.648206851445    1167.562934199094 
  314000   -5528.994825022051   -5528.994825022051   25135.448627130205  -31782.316702996523    1117.873250844267 
  315000   -5515.806707125277   -5515.806707125277   25142.445938350051  -31780.646144855793    1122.393499380467 
  316000   -5470.471081604464   -5470.471081604464   25217.854249796321  -31784.251457540689    1095.926126139902 
  317000   -5488.015019942115   -5488.015019942115   25284.125964643285  -31779.857107167056    1007.716122581656 
  318000   -5521.169327620231   -5521.169327620231   25230.987462487348  -31786.077678390302    1033.920888282721 
  319000   -5565.861484034409   -5565.861484034409   25143.853561071232  -31781.806402268099    1072.091357162456 
  320000   -5571.811604444309   -5571.811604444309   25063.782346152177  -31781.766449225655    1146.172498629172 
  321000   -5493.844183686178   -5493.844183686178   25181.012282459636  -31782.749784234529    1107.893318088714 
  322000   -5494.042669370669   -5494.042669370669   25153.971022009457  -31782.896483976918    1134.882792596791 
  323000   -5496.596181861602   -5496.596181861602   25222.212385194602  -31781.869712938653    1063.061145882449 
  324000   -5504.885159399862   -5504.885159399862   25128.879020780863  -31781.766624248281    1148.002444067550 
  325000   -5575.878270998986   -5575.878270998986   25104.359365325941  -31785.738249127899    1105.500612802972 
  326000   -5534.853761748593   -5534.853761748593   25135.122032328614  -31780.085635896485    1110.109841819276 
  327000   -5543.872198590580   -5543.872198590580   25142.827818839411  -31782.623300089796    1095.923282659808 
  328000   -5482.206176234082   -5482.206176234082   25161.272440935256  -31784.692431432071    1141.213814262735 
  329000   -5488.017370288409   -5488.017370288409   25235.773588867156  -31778.765783012015    1054.974823856453 
  330000   -5503.705363667952   -5503.705363667952   25158.319079737001  -31780.075525576936    1118.051082171985 
  331000   -5529.739234341065   -5529.739234341065   25157.616193445501  -31782.007182846079    1094.651755059517 
  332000   -5445.454840779701   -5445.454840779701   25239.033896344939  -31778.550341987615    1094.061604862971 
  333000   -5527.671120037914   -5527.671120037914   25193.242052152811  -31784.378758623607    1063.465586432886 
  334000   -5509.838096149881   -5509.838096149881   25166.253638872928  -31784.504409835721    1108.412674812912 
  335000   -5565.273381123596   -5565.273381123596   25129.720141725324  -31780.980908852805    1085.987386003887 
  336000   -5553.940279832750   -5553.940279832750   25072.651618560536  -31784.667647473172    1158.075749079888 
  337000   -5542.596240200055   -5542.596240200055   25173.541944118439  -31780.644875017260    1064.506690698768 
  338000   -5491.298107219325   -5491.298107219325   25192.882317132877  -31782.353567677987    1098.173143325781 
  339000   -5558.904463558403   -5558.904463558403   25154.936620050234  -31788.080296149197    1074.239212540558 
  340000   -5499.588892887768   -5499.588892887768   25153.590488314407  -31780.202366548732    1127.022985346557 
  341000   -5420.859448421688   -5420.859448421688   25284.492827332833  -31779.355330149043    1074.003054394525 
  342000   -5507.750840096553   -5507.750840096553   25157.662954996471  -31785.813734817639    1120.399939724620 
  343000   -5487.918836032932   -5487.918836032932   25249.062248650294  -31782.782774189360    1045.801689506134 
  344000   -5538.579822360254   -5538.579822360254   25171.032315198056  -31784.164803733613    1074.552666175300 
  345000   -5582.771582875550   -5582.771582875550   25078.002728993262  -31785.880225779470    1125.105913910659 
  346000   -5514.828375002609   -5514.828375002609   25094.748975029124  -31779.531975400110    1169.954625368373 
  347000   -5492.922894610925   -5492.922894610925   25275.762266652146  -31780.220667993686    1011.535506730614 
  348000   -5563.768984597449   -5563.768984597449   25084.806301275505  -31784.875206158831    1136.299920285874 
  349000   -5511.492271471176   -5511.492271471176   25169.218686166671  -31784.833089924959    1104.122132287111 
  350000   -5555.742022555169   -5555.742022555169   25060.018213866555  -31783.427112819209    1167.666876397484 
  351000   -5586.987732520745   -5586.987732520745   25030.325210188064  -31778.637782659385    1161.324839950574 
  352000   -5486.395541363498   -5486.395541363498   25256.078570709629  -31780.303177395981    1037.829065322857 
  353000   -5590.060681314713   -5590.060681314713   25081.609495627778  -31784.822371603950    1113.152194661456 
  354000   -5509.810623461883   -5509.810623461883   25149.735578077794  -31786.249034506160    1126.702832966484 
  355000   -5530.317307386569   -5530.317307386569   25153.202054790483  -31781.700653412328    1098.181291235280 
  356000   -5479.426831834237   -5479.426831834237   25168.407363265826  -31779.869697720322    1132.035502620263 
  357000   -5509.684657320697   -5509.684657320697   25123.870022698262  -31781.878626450252    1148.323946431296 
  358000   -5513.589463135515   -5513.589463135515   25208.082706809935  -31780.430968820165    1058.758798874712 
  359000   -5512.241828824768   -5512.241828824768   25176.116454284667  -31783.509979515886    1095.151696406449 
  360000   -5498.174070861551   -5498.174070861551   25196.084332934446  -31783.169957016282    1088.911553220282 
  361000   -5568.271665029682   -5568.271665029682   25079.782296032587  -31784.414822593924    1136.360861531658 
  362000   -5585.312992104984   -5585.312992104984   25096.143680031731  -31784.747047513687    1103.290375376972 
  363000   -5546.956210614815   -5546.956210614815   25104.372069233839  -31783.264787950007    1131.936508101353 
  364000   -5611.432195751699   -5611.432195751699   25050.747641507973  -31782.970414119973    1120.790576860303 
  365000   -5558.033906111246   -5558.033906111246   25170.017598917788  -31786.898872876835    1058.847367847800 
  366000   -5528.521709310884   -5528.521709310884   25093.769947957750  -31781.242699789229    1158.951042520594 
  367000   -5547.469756408133   -5547.469756408133   25133.123280951677  -31783.488496664580    1102.895459304767 
  368000   -5510.639797783006   -5510.639797783006   25248.048700191339  -31780.731813540733    1022.043315566384 
  369000   -5487.282079815795   -5487.282079815795   25196.045508095267  -31784.745628491601    1101.418040580542 
  370000   -5453.870174213604   -5453.870174213604   25272.639822329285  -31781.998183923373    1055.488187380483 
  371000   -5540.475043557533   -5540.475043557533   25122.918554135249  -31786.034076460841    1122.640478768063 
  372000   -5481.316512225858   -5481.316512225858   25217.742678953880  -31775.631676383244    1076.572485203505 
  373000   -5519.789043334593   -5519.789043334593   25160.969884750055  -31782.383949349110    1101.625021264463 
  374000   -5553.709595356569   -5553.709595356569   25131.117196331285  -31781.213146498227    1096.386354810376 
  375000   -5532.320878629311   -5532.320878629311   25120.213137953528  -31782.312044083879    1129.778027501043 
  376000   -5487.816547016278   -5487.816547016278   25185.760737166376  -31784.138751960745    1110.561467778094 
  377000   -5468.246093024700   -5468.246093024700   25302.119715248286  -31786.819504586954    1016.453696313973 
  378000   -5554.647414234285   -5554.647414234285   25171.689881505423  -31781.388541478791    1055.051245739083 
  379000   -5527.007261747622   -5527.007261747622   25230.415398672718  -31785.315976333815    1027.893315913472 
  380000   -5503.936298843066   -5503.936298843066   25185.782439447117  -31783.714663174149    1093.995924883971 
  381000   -5536.423200510737   -5536.423200510737   25146.412476658472  -31785.677815547253    1102.842138378044 
  382000   -5507.823363224386   -5507.823363224386   25173.355751294592  -31780.409898185746    1099.230783666770 
  383000   -5511.950196358543   -5511.950196358543   25111.294330219367  -31782.283565422222    1159.039038844311 
  384000   -5435.824731582008   -5435.824731582008   25254.155680670010  -31781.665470237363    1091.685057985345 
  385000   -5534.121956894418   -5534.121956894418   25156.517787312750  -31783.964547592535    1093.324803385368 
  386000   -5589.429553879156   -5589.429553879156   25088.125034723216  -31783.041730536679    1105.487141934303 
  387000   -5511.307496367343   -5511.307496367343   25156.145621775031  -31781.373795503514    1113.920677361140 
  388000   -5469.403950585180   -5469.403950585180   25198.242772034555  -31779.151952588752    1111.505229969017 
  389000   -5507.019749529900   -5507.019749529900   25242.429096536689  -31781.682016861399    1032.233170794810 
  390000   -5450.056073638330   -5450.056073638330   25240.739182267058  -31778.055890594373    1087.260634688985 
  391000   -5573.869503786183   -5573.869503786183   25055.876101048623  -31778.991065487498    1149.245460652693 
  392000   -5508.588866580110   -5508.588866580110   25130.291011410773  -31781.221119168564    1142.341241177684 
  393000   -5565.132462877686   -5565.132462877686   25086.369890631337  -31784.265540882217    1132.763187373201 
  394000   -5437.217698580265   -5437.217698580265   25279.116311403683  -31781.677200298382    1065.343190314433 
  395000   -5505.323067416361   -5505.323067416361   25175.953933353390  -31781.674645654017    1100.397644884264 
  396000   -5498.667831678860   -5498.667831678860   25202.534290545293  -31786.561071154068    1085.358948929917 
  397000   -5468.795350873661   -5468.795350873661   25249.034543810139  -31781.406043060691    1063.576148376892 
  398000   -5564.716776747300   -5564.716776747300   25102.463882179269  -31777.503368987756    1110.322710061185 
  399000   -5593.065678632538   -5593.065678632538   25030.822084448249  -31785.930908153092    1162.043145072306 
  400000   -5532.169976444591   -5532.169976444591   25123.550645872201  -31780.098065090784    1124.377442773996 
  401000   -5540.417269627233   -5540.417269627233   25127.235293710008  -31781.808296717281    1114.155733380039 
  402000   -5562.125200297069   -5562.125200297069   25081.529333697268  -31781.796711103801    1138.142177109466 
  403000   -5473.026261454641   -5473.026261454641   25167.035169379807  -31780.020917268601    1139.959486434154 
  404000   -5531.782630711270   -5531.782630711270   25130.696833577411  -31783.318891639192    1120.839427350509 
  405000   -5534.775265372544   -5534.775265372544   25121.287516454031  -31780.269049626368    1124.206267799795 
  406000   -5494.274949722865   -5494.274949722865   25210.230796652664  -31779.764208378219    1075.258462002688 
  407000   -5509.447392153059   -5509.447392153059   25123.340452998080  -31776.478994217279    1143.691149066144 
  408000   -5585.260341184337   -5585.260341184337   25109.531021471845  -31785.550475308875    1090.759112652690 
  409000   -5523.170189122251   -5523.170189122251   25169.957530008156  -31784.699515790726    1091.571796660322 
  410000   -5554.794861159458   -5554.794861159458   25086.024969079917  -31785.685542612500    1144.865712373123 
  411000   -5553.573171484517   -5553.573171484517   25055.291232272742  -31780.842286354346    1171.977882597086 
  412000   -5575.045971483210   -5575.045971483210   25127.550514429146  -31783.077115514796    1080.480629602444 
  413000   -5535.008927417359   -5535.008927417359   25095.367929697601  -31781.572588489627    1151.195731374666 
  414000   -5537.541179119602   -5537.541179119602   25141.489343685313  -31781.913438756859    1102.882915951949 
  415000   -5535.964314343943   -5535.964314343943   25131.513611111088  -31780.698556652391    1113.220631197362 
  416000   -5566.777094652251   -5566.777094652251   25095.224843337284  -31785.243215187715    1123.241277198176 
  417000   -5525.814025016167   -5525.814025016167   25213.068049245103  -31780.042800905299    1041.160726644030 
  418000   -5468.678977121450   -5468.678977121450   25301.425357195003  -31787.400001955455    1017.295667639003 
  419000   -5515.505578144024   -5515.505578144024   25193.993811357701  -31782.033110307650    1072.533720805920 
  420000   -5476.923594717740   -5476.923594717740   25237.019022005501  -31780.843578195530    1066.900961472291 
  421000   -5559.625996364332   -5559.625996364332   25167.523364732871  -31783.806078188980    1056.656717091777 
  422000   -5517.877765705001   -5517.877765705001   25188.043287622015  -31781.958787145919    1076.037733818905 
  423000   -5589.927306689038   -5589.927306689038   25133.141175886092  -31786.752400086989    1063.683917511860 
  424000   -5469.298299636099   -5469.298299636099   25245.912170059622  -31780.535452317079    1065.324982621353 
  425000   -5578.490826843663   -5578.490826843663   25065.729898871279  -31786.313551198080    1142.092825483136 
  426000   -5525.953990181595   -5525.953990181595   25158.411824193485  -31784.740539233590    1100.374724858512 
  427000   -5520.902109350947   -5520.902109350947   25199.296598050190  -31779.748232575588    1059.549525174449 
  428000   -5527.120506273888   -5527.120506273888   25094.735897641011  -31784.399179593660    1162.542775678760 
  429000   -5553.944808148903   -5553.944808148903   25089.587217454784  -31783.111291724301    1139.579266120614 
  430000   -5500.465055709497   -5500.465055709497   25138.642548571082  -31780.861836735876    1141.754232455295 
  431000   -5527.388852767421   -5527.388852767421   25129.882658193190  -31782.019421767491    1124.747910806882 
  432000   -5551.531284525532   -5551.531284525532   25089.067633865252  -31782.144070442486    1141.545152051699 
  433000   -5577.231232768030   -5577.231232768030   25069.673970607575  -31783.896308889769    1136.991105514158 
  434000   -5546.253641483494   -5546.253641483494   25126.451056241756  -31781.077629970310    1108.372932245054 
  435000   -5561.774919747684   -5561.774919747684   25096.677611878982  -31781.199442970505    1122.746911343840 
  436000   -5601.564604239960   -5601.564604239960   25011.034878416511  -31786.447354955464    1173.847872298990 
  437000   -5568.260905635943   -5568.260905635943   25053.233201896779  -31783.075758723007    1161.581651190287 
  438000   -5540.999371527982   -5540.999371527982   25126.813205758473  -31785.093209509334    1117.280632222880 
  439000   -5548.519014018442   -5548.519014018442   25135.447412762685  -31784.049094089401    1100.082667308270 
  440000   -5513.078908153602   -5513.078908153602   25135.136624309958  -31777.952621891192    1129.737089427632 
  441000   -5461.094917724517   -5461.094917724517   25286.281547101353  -31780.883667135167    1033.507202309297 
  442000   -5455.729222019923   -5455.729222019923   25294.387992279688  -31780.345821971536    1030.228607671926 
  443000   -5510.851483410381   -5510.851483410381   25173.430605250742  -31781.436186798735    1097.154098137612 
  444000   -5547.641956608091   -5547.641956608091   25169.954062911471  -31783.624686405430    1066.028666885864 
  445000   -5549.259266071014   -5549.259266071014   25117.129902122171  -31785.144348336180    1118.755180142994 
  446000   -5485.801044825952   -5485.801044825952   25200.350367476221  -31782.871090762408    1096.719678460236 
  447000   -5492.789144842827   -5492.789144842827   25194.051408448777  -31784.141414295416    1097.300861003813 
  448000   -5477.670093713426   -5477.670093713426   25237.571714100188  -31777.624621988307    1062.382814174690 
  449000   -5503.848291378679   -5503.848291378679   25084.407674789196  -31784.666589262648    1196.410623094770 
  450000   -5505.146682306917   -5505.146682306917   25230.726523428864  -31784.978015803226    1049.104810067447 
  451000   -5487.163827451543   -5487.163827451543   25178.106195251752  -31784.696835197636    1119.426812494341 
  452000   -5455.610876797957   -5455.610876797957   25241.353733162694  -31781.876906344703    1084.912296384052 
  453000   -5519.420865627410   -5519.420865627410   25150.057696686865  -31782.874190392700    1113.395628078424 
  454000   -5552.317862727450   -5552.317862727450   25150.567137453108  -31783.260970648305    1080.375970467754 
  455000   -5580.052088430089   -5580.052088430089   25085.611350754582  -31783.800722998381    1118.137283813707 
  456000   -5512.827115160351   -5512.827115160351   25118.804244068735  -31783.714687154443    1152.083327925353 
  457000   -5491.305257916170   -5491.305257916170   25213.407362429556  -31779.021544195562    1074.308923849838 
  458000   -5511.150530236166   -5511.150530236166   25190.203436480009  -31783.884599141587    1082.530632425409 
  459000   -5531.800461545899   -5531.800461545899   25204.955047200856  -31782.241982722280    1045.486473975523 
  460000   -5485.883159696252   -5485.883159696252   25202.494617420540  -31780.177860332791    1091.800083216005 
  461000   -5502.581422884115   -5502.581422884115   25243.016314106302  -31782.059070269057    1036.461333278638 
  462000   -5524.513012019768   -5524.513012019768   25144.662591518740  -31786.055901920681    1116.880298382178 
  463000   -5525.395240984253   -5525.395240984253   25137.053598955255  -31783.468361533720    1121.019521594218 
  464000   -5538.083579927392   -5538.083579927392   25125.885260912866  -31779.497629752681    1115.528788912416 
  465000   -5570.836464238648   -5570.836464238648   25026.367770823243  -31778.935139668993    1181.730904607103 
  466000   -5534.551985131962   -5534.551985131962   25098.058885869457  -31782.407079503333    1149.796208501919 
  467000   -5588.551270524724   -5588.551270524724   25100.861964044241  -31784.642297476661    1095.229062907703 
  468000   -5480.754891508292   -5480.754891508292   25277.718971468523  -31781.125491761035    1022.651628784219 
  469000   -5500.777636515602   -5500.777636515602   25262.980352501847  -31782.632342590397    1018.874353572946 
  470000   -5558.444314635359   -5558.444314635359   25082.975291261999  -31780.896428393346    1139.476822495989 
  471000   -5519.000211582519   -5519.000211582519   25180.280986486297  -31781.819362259943    1082.538164191122 
  472000   -5474.698292150373   -5474.698292150373   25199.966239914258  -31785.075819363658    1110.411287299025 
  473000   -5561.201581988560   -5561.201581988560   25103.140317409932  -31780.005478056210    1115.663578657720 
  474000   -5473.789941823998   -5473.789941823998   25169.204182118774  -31781.820399391556    1138.826275448784 
  475000   -5507.390871894375   -5507.390871894375   25229.005035244791  -31781.914767701772    1045.518860562606 
  476000   -5503.617247797913   -5503.617247797913   25269.243463744730  -31782.822613864926    1009.961902322284 
  477000   -5544.929449735599   -5544.929449735599   25120.010703979202  -31783.006376007568    1118.066222292771 
  478000   -5458.565358446311   -5458.565358446311   25236.204210572607  -31779.721760012115    1084.952190993200 
  479000   -5557.631785533660   -5557.631785533660   25139.048601130078  -31782.290981083999    1085.610594420258 
  480000   -5546.656392027435   -5546.656392027435   25070.233592137793  -31786.014563036257    1169.124578871032 
  481000   -5517.299576256839   -5517.299576256839   25185.656491632151  -31781.845987431127    1078.889919542137 
  482000   -5549.920352828554   -5549.920352828554   25171.156399983487  -31783.193828825340    1062.117076013302 
  483000   -5587.750262240403   -5587.750262240403   25105.461890514085  -31784.917723396811    1091.705570642323 
  484000   -5489.844357044829   -5489.844357044829   25254.310895169845  -31777.963243135615    1033.807990920941 
  485000   -5510.198024783422   -5510.198024783422   25214.349363690380  -31785.918765482034    1061.371377008229 
  486000   -5430.808119348112   -5430.808119348112   25319.865166545293  -31783.329019348170    1032.655733454763 
  487000   -5476.661150054792   -5476.661150054792   25137.116584472402  -31775.785096220636    1162.007361693442 
  488000   -5514.759006284137   -5514.759006284137   25199.640612603580  -31778.319813842052    1063.920194954336 
  489000   -5474.880309424996   -5474.880309424996   25213.681037236671  -31778.831176773234    1090.269830111565 
  490000   -5529.148614734720   -5529.148614734720   25129.287441716588  -31781.653567135112    1123.217510683804 
  491000   -5517.945377785316   -5517.945377785316   25186.397918581148  -31780.076301958914    1075.733005592453 
  492000   -5562.045009618374   -5562.045009618374   25123.770916861224  -31786.836371787704    1101.020445308106 
  493000   -5509.854999981286   -5509.854999981286   25224.283127902701  -31780.448804707801    1046.310676823815 
  494000   -5483.833865282992   -5483.833865282992   25273.174089104716  -31777.391099926332    1020.383145538626 
  495000   -5533.910762776155   -5533.910762776155   25125.381812290005  -31786.381172365625    1127.088597299471 
  496000   -5556.477012821797   -5556.477012821797   25092.942715160098  -31782.094210929172    1132.674482947274 
  497000   -5528.374938740468   -5528.374938740468   25174.828358299688  -31786.224838247195    1083.021541207034 
  498000   -5519.527082027886   -5519.527082027886   25213.899829123315  -31779.360909379957    1045.933998228754 
  499000   -5485.784155313544   -5485.784155313544   25254.909239895343  -31784.529200864381    1043.835805655498 
  500000   -5520.357532712485   -5520.357532712485   25191.812449793913  -31782.683662130650    1070.513679624254 
  501000   -5462.001713884907   -5462.001713884907   25260.137096430935  -31781.399726991644    1059.260916675800 
  502000   -5561.029845865247   -5561.029845865247   25088.060748181717  -31782.312536027544    1133.221941980585 
  503000   -5520.890470588358   -5520.890470588358   25225.245512534057  -31777.199917209735    1031.063934087319 
  504000   -5580.110174121601   -5580.110174121601   25099.071622826803  -31782.622485656259    1103.440688707860 
  505000   -5497.600963776033   -5497.600963776033   25246.225244229841  -31778.260991031475    1034.434783025600 
  506000   -5485.147480597803   -5485.147480597803   25175.056102608221  -31780.952415036143    1120.748831830114 
  507000   -5524.000199652473   -5524.000199652473   25185.599586376964  -31778.650172083973    1069.050386054533 
  508000   -5510.323184810935   -5510.323184810935   25228.237250774899  -31786.180423003887    1047.619987418055 
  509000   -5481.339585356560   -5481.339585356560   25139.525021067282  -31786.364126697750    1165.499520273914 
  510000   -5502.279491273468   -5502.279491273468   25225.992306679451  -31778.298708251848    1050.026910298922 
  511000   -5437.718349168710   -5437.718349168710   25260.410780944181  -31779.560565377102    1081.431435264211 
  512000   -5473.900262820323   -5473.900262820323   25232.574130400291  -31779.985244155141    1073.510850934529 
  513000   -5579.947578736010   -5579.947578736010   25118.663778436174  -31781.010654491973    1082.399297319787 
  514000   -5550.246705372778   -5550.246705372778   25133.736468315510  -31781.300037171441    1097.316863483150 
  515000   -5521.467339521721   -5521.467339521721   25158.950557423475  -31779.752621068954    1099.334724123757 
  516000   -5512.487903438538   -5512.487903438538   25211.822696267314  -31779.815812739718    1055.505213033864 
  517000   -5461.635421117589   -5461.635421117589   25295.128491548199  -31779.690441297393    1022.926528631607 
  518000   -5436.020328777719   -5436.020328777719   25313.589585311667  -31779.129522802945    1029.519608713560 
  519000   -5524.397574642182   -5524.397574642182   25144.117439612077  -31781.862581222831    1113.347566968571 
  520000   -5491.890235114777   -5491.890235114777   25269.348174094739  -31783.957816724986    1022.719407515471 
  521000   -5563.824662969459   -5563.824662969459   25095.359223560408  -31784.800665828228    1125.616779298362 
  522000   -5541.133795370224   -5541.133795370224   25121.869965615093  -31780.030213519298    1117.026452533979 
  523000   -5532.891300570114   -5532.891300570114   25097.595271651651  -31775.242655459930    1144.756083238161 
  524000   -5512.709885725086   -5512.709885725086   25185.798237774987  -31783.827726292366    1085.319602792289 
  525000   -5509.696067363424   -5509.696067363424   25207.514305658828  -31781.630195619502    1064.419822597254 
  526000   -5521.673733223051   -5521.673733223051   25131.733430089225  -31781.939790162302    1128.532626850026 
  527000   -5500.790914740628   -5500.790914740628   25153.589029987997  -31777.647985916079    1123.268041187456 
  528000   -5497.281260911117   -5497.281260911117   25181.624485343687  -31780.711544365950    1101.805798111145 
  529000   -5470.499465842939   -5470.499465842939   25210.570361214021  -31782.743560052771    1101.673732995813 
  530000   -5529.332524479309   -5529.332524479309   25173.275188188003  -31781.039872692818    1078.432160025506 
  531000   -5552.728159375245   -5552.728159375245   25139.282299299692  -31779.238222778589    1087.227764103649 
  532000   -5587.646247656121   -5587.646247656121   25004.983713992518  -31785.823962758004    1193.194001109366 
  533000   -5495.516723762827   -5495.516723762827   25184.251204220833  -31778.578770815500    1098.810842831844 
  534000   -5502.224685243888   -5502.224685243888   25185.966372842995  -31782.068840713062    1093.877782626180 
  535000   -5560.543682035623   -5560.543682035623   25135.654947066923  -31786.853112542271    1090.654483439727 
  536000   -5520.441106852471   -5520.441106852471   25203.971314830444  -31786.630679061996    1062.218257379088 
  537000   -5505.784077757729   -5505.784077757729   25190.824611645832  -31782.976141884224    1086.367452480663 
  538000   -5552.717381941449   -5552.717381941449   25096.664703423077  -31784.327036011793    1134.944950647269 
  539000   -5507.913300567703   -5507.913300567703   25204.559062409739  -31778.074117726126    1065.601754748684 
  540000   -5516.422884344556   -5516.422884344556   25119.391305523226  -31781.932472472159    1146.118282604378 
  541000   -5557.479397057745   -5557.479397057745   25096.714362451345  -31784.559265596065    1130.365506086973 
  542000   -5532.626221895531   -5532.626221895531   25138.199909261133  -31785.433543693376    1114.607412536714 
  543000   -5543.947634615386   -5543.947634615386   25030.678740182269  -31783.750763154389    1209.124388356735 
  544000   -5547.508499217529   -5547.508499217529   25109.690102403885  -31782.480937310105    1125.282335688693 
  545000   -5536.525038475484   -5536.525038475484   25099.672254359422  -31781.713187058005    1145.515894223098 
  546000   -5562.156530716471   -5562.156530716471   25159.879601842891  -31780.562028526601    1058.525895967238 
  547000   -5583.998053541520   -5583.998053541520   25054.596503995945  -31783.122127105784    1144.527569568317 
  548000   -5503.584704627447   -5503.584704627447   25203.058527225941  -31776.733751577165    1070.090519723778 
  549000   -5530.221419439113   -5530.221419439113   25089.653428821035  -31779.509180151435    1159.634331891287 
  550000   -5507.171555447549   -5507.171555447549   25252.899701753689  -31781.511437780693    1021.440180579453 
  551000   -5523.409029966588   -5523.409029966588   25236.096421195332  -31786.388011076433    1026.882559914505 
  552000   -5567.677657765944   -5567.677657765944   25089.144651969076  -31785.388537215655    1128.566227480632 
  553000   -5509.719998653247   -5509.719998653247   25212.908522390091  -31778.987908434141    1056.359387390803 
  554000   -5489.205339092074   -5489.205339092074   25244.963170116767  -31780.011166468084    1045.842657259250 
  555000   -5528.121118515399   -5528.121118515399   25163.005159452376  -31781.349873275853    1090.223595308078 
  556000   -5602.124749393708   -5602.124749393708   25124.170782114066  -31786.143935224267    1059.848403716490 
  557000   -5467.119001594212   -5467.119001594212   25236.713647244069  -31782.114075776000    1078.281426937716 
  558000   -5520.189816646820   -5520.189816646820   25134.581435190576  -31782.663746949558    1127.892495112165 
  559000   -5542.139361144888   -5542.139361144888   25183.742261007501  -31778.499269635984    1052.617647483597 
  560000   -5531.521216337191   -5531.521216337191   25123.228705424546  -31782.738159976157    1127.988238214421 
  561000   -5511.671942986031   -5511.671942986031   25163.760955670754  -31783.059128826557    1107.626230169772 
  562000   -5533.882881909642   -5533.882881909642   25097.020976518750  -31779.763171955343    1148.859313526950 
  563000   -5532.838027484311   -5532.838027484311   25157.816096599890  -31778.857420509416    1088.203296425212 
  564000   -5534.932390925722   -5534.932390925722   25099.468853214199  -31781.790023557063    1147.388779417142 
  565000   -5454.090685838779   -5454.090685838779   25287.233650063688  -31780.541083443361    1039.216747540894 
  566000   -5492.886842455289   -5492.886842455289   25191.363430268673  -31782.073233555853    1097.822960831891 
  567000   -5476.986703638337   -5476.986703638337   25152.077563671526  -31777.560096122012    1148.495828812147 
  568000   -5460.904330476842   -5460.904330476842   25235.315307296569  -31778.636461731599    1082.416823958191 
  569000   -5544.884365316353   -5544.884365316353   25178.878743073568  -31781.888339703877    1058.125231313956 
  570000   -5560.087163757180   -5560.087163757180   25121.321662818395  -31783.331398650749    1101.922572075173 
  571000   -5572.278196316878   -5572.278196316878   25072.409812220540  -31776.180636656725    1131.492628119308 
  572000   -5530.494805504375   -5530.494805504375   25079.022137947191  -31782.429497823872    1172.912554372303 
  573000   -5500.694291144086   -5500.694291144086   25169.548799913777  -31777.655935366140    1107.412844308276 
  574000   -5527.856826034564   -5527.856826034564   25155.119174200769  -31782.829826077512    1099.853825842182 
  575000   -5512.336951003188   -5512.336951003188   25237.970966990441  -31781.168071200798    1030.860153207173 
  576000   -5522.924023703483   -5522.924023703483   25157.934176065311  -31780.156170313763    1099.297970544967 
  577000   -5514.403543620148   -5514.403543620148   25213.619477830536  -31780.052332856387    1052.029311405703 
  578000   -5510.116431905572   -5510.116431905572   25129.454652636687  -31782.300839848660    1142.729755306403 
  579000   -5522.687105813042   -5522.687105813042   25104.520868755764  -31781.619935985058    1154.411961416255 
  580000   -5576.868142555086   -5576.868142555086   25129.481195095083  -31788.753263658222    1082.403926008050 
  581000   -5550.030322519695   -5550.030322519695   25149.530881104220  -31782.265623780986    1082.704420157075 
  582000   -5577.735218835085   -5577.735218835085   25016.827619555581  -31778.258379576226    1183.695541185557 
  583000   -5507.675514353450   -5507.675514353450   25161.798458497226  -31785.517359097070    1116.043386246396 
  584000   -5567.138768776462   -5567.138768776462   25087.629260879941  -31785.336485998887    1130.568456342484 
  585000   -5536.350998819013   -5536.350998819013   25171.035777344499  -31785.163411510039    1077.776635346527 
  586000   -5493.690145631987   -5493.690145631987   25168.176480546441  -31781.171798418956    1119.305172240533 
  587000   -5518.281089227938   -5518.281089227938   25197.601866277753  -31780.647168080635    1064.764212574943 
  588000   -5537.390304200875   -5537.390304200875   25128.356698428266  -31783.030059254048    1117.283056624904 
  589000   -5525.065226934152   -5525.065226934152   25099.689471072285  -31781.680656251890    1156.925958245453 
  590000   -5538.302643199178   -5538.302643199178   25124.625096629923  -31783.672052955746    1120.744313126642 
  591000   -5551.170146229560   -5551.170146229560   25123.048074046510  -31782.376832750349    1108.158612474277 
  592000   -5533.355042873442   -5533.355042873442   25146.724675119072  -31781.160096412870    1101.080378420361 
  593000   -5573.853061364018   -5573.853061364018   25093.626500463004  -31782.815998127971    1115.336436300948 
  594000   -5520.121649779761   -5520.121649779761   25158.513753090232  -31781.712637968954    1103.077235098960 
  595000   -5456.862105104225   -5456.862105104225   25285.840678539753  -31780.736128854387    1038.033345210408 
  596000   -5518.429980157973   -5518.429980157973   25143.174062309205  -31782.492377586070    1120.888335118894 
  597000   -5515.650981945171   -5515.650981945171   25193.317883183074  -31779.640362894024    1070.671497765784 
  598000   -5506.143475611992   -5506.143475611992   25199.064760448240  -31781.193873897959    1075.985637837729 
  599000   -5548.288804325890   -5548.288804325890   25166.659225914620  -31781.797659093620    1066.849628853108 
  600000   -5569.647704037430   -5569.647704037430   25116.263036736826  -31781.330905878131    1095.420165103880 
  601000   -5529.300427058606   -5529.300427058606   25196.764262222398  -31783.318745872952    1057.254056591947 
  602000   -5494.349671908807   -5494.349671908807   25257.495701066211  -31784.736283544727    1032.890910569706 
  603000   -5534.137879254209   -5534.137879254209   25174.998177961708  -31783.419699373051    1074.283642157130 
  604000   -5462.113744332775   -5462.113744332775   25309.747954598508  -31784.207332063517    1012.345633132236 
  605000   -5530.052130494721   -5530.052130494721   25205.657619315472  -31780.509828447295    1044.800078637100 
  606000   -5521.283369036202   -5521.283369036202   25129.648554999178  -31781.903658281961    1130.971734246577 
  607000   -5574.722740348687   -5574.722740348687   25101.600586955348  -31778.262935222698    1101.939607918660 
  608000   -5509.407529983204   -5509.407529983204   25197.735355559191  -31780.919370683194    1073.776485140801 
  609000   -5529.923322245315   -5529.923322245315   25116.366132094314  -31783.576053043060    1137.286598703438 
  610000   -5499.961857883449   -5499.961857883449   25107.882134912412  -31781.375971030022    1173.531978234161 
  611000   -5559.330064286398   -5559.330064286398   25097.581250221065  -31782.806770358249    1125.895455850785 
  612000   -5547.880537039746   -5547.880537039746   25181.370178641420  -31784.254230902705    1055.003515221536 
  613000   -5572.105195086893   -5572.105195086893   25085.648627099516  -31785.942237976233    1128.188415789826 
  614000   -5510.561262427884   -5510.561262427884   25224.752611636606  -31784.638644786493    1049.324770722001 
  615000   -5478.995923281058   -5478.995923281058   25248.373830346070  -31779.829348675914    1052.459595048782 
  616000   -5415.438259605478   -5415.438259605478   25332.131867170850  -31782.086333808526    1034.516207032199 
  617000   -5484.825517883710   -5484.825517883710   25233.508068023759  -31782.403534206755    1064.069948299291 
  618000   -5543.601684110090   -5543.601684110090   25108.040475589827  -31779.457123305128    1127.814963605210 
  619000   -5492.864099854145   -5492.864099854145   25133.585635777676  -31779.561774169531    1153.112038537711 
  620000   -5570.904802259571   -5570.904802259571   25098.234814268013  -31783.965833279512    1114.826216751929 
  621000   -5555.802743568442   -5555.802743568442   25054.121486903743  -31781.594576815296    1171.670346343108 
  622000   -5517.626936894270   -5517.626936894270   25118.594435793322  -31783.436368464929    1147.214995777338 
  623000   -5575.669619489250   -5575.669619489250   25138.466292865509  -31783.278475923129    1069.142563568373 
  624000   -5555.005650968673   -5555.005650968673   25157.750604372057  -31785.831593137420    1073.075337796692 
  625000   -5534.187007275177   -5534.187007275177   25109.214421578101  -31779.723506406110    1136.322077552830 
  626000   -5466.692720643088   -5466.692720643088   25220.951175396429  -31779.248951780468    1091.605055740949 
  627000   -5542.739416503002   -5542.739416503002   25226.219813102744  -31779.424001417276    1010.464771811531 
  628000   -5439.240976379500   -5439.240976379500   25245.782046416214  -31779.978303864013    1094.955281068301 
  629000   -5509.794186192496   -5509.794186192496   25249.236825900814  -31782.906765011368    1023.875752918053 
  630000   -5513.229200838701   -5513.229200838701   25202.331027755870  -31780.112613036858    1064.552384442288 
  631000   -5525.024781490552   -5525.024781490552   25213.218223057702  -31782.437447457334    1044.194442909078 
  632000   -5548.226065693405   -5548.226065693405   25128.367426735545  -31787.336874046112    1110.743381617157 
  633000   -5557.087443379376   -5557.087443379376   25098.345535494202  -31784.399993149756    1128.967014276178 
  634000   -5570.482489812435   -5570.482489812435   25154.989287333188  -31782.753183343739    1057.281406198116 
  635000   -5519.290348874074   -5519.290348874074   25241.053276142477  -31781.786939764457    1021.443314747910 
  636000   -5463.260299715224   -5463.260299715224   25258.337241966226  -31775.431120096808    1053.833578415359 
  637000   -5563.784189293670   -5563.784189293670   25127.797087582894  -31783.645877350096    1092.064600473534 
  638000   -5452.174530445071   -5452.174530445071   25306.626871683657  -31783.972339150761    1025.170937022031 
  639000   -5569.490866215539   -5569.490866215539   25148.161343621068  -31785.880374263972    1068.228164427364 
  640000   -5492.162123114027   -5492.162123114027   25279.230634780793  -31781.960856062677    1010.568098167853 
  641000   -5486.645600235628   -5486.645600235628   25218.688933384234  -31784.903830387728    1079.569296767865 
  642000   -5533.971444369523   -5533.971444369523   25160.155933940641  -31781.026078074487    1086.898699764322 
  643000   -5475.671677792594   -5475.671677792594   25201.942653338974  -31781.802289266587    1104.187958135015 
  644000   -5462.484678233188   -5462.484678233188   25224.591796993500  -31776.319332594412    1089.242857367724 
  645000   -5534.390834482310   -5534.390834482310   25145.786387399996  -31786.575656750781    1106.398434868475 
  646000   -5503.809198419309   -5503.809198419309   25161.089811704427  -31783.059167428790    1118.160157305051 
  647000   -5502.836433249500   -5502.836433249500   25201.334354668281  -31780.399969594015    1076.229181676232 
  648000   -5511.257660138377   -5511.257660138377   25174.966242697126  -31782.995043863397    1096.771141027889 
  649000   -5502.617745597778   -5502.617745597778   25198.126171204680  -31782.831780382203    1082.087863579747 
  650000   -5531.221475393770   -5531.221475393770   25208.075856825439  -31783.086739009621    1043.789406790412 
  651000   -5477.606987039086   -5477.606987039086   25231.438258132730  -31782.586539991382    1073.541294819565 
  652000   -5488.059047885792   -5488.059047885792   25327.324413182392  -31779.414451572164     964.030990503981 
  653000   -5508.438021324306   -5508.438021324306   25203.793491121371  -31779.673954800121    1067.442442354447 
  654000   -5551.522791618550   -5551.522791618550   25129.653035643212  -31783.452776916503    1102.276949654737 
  655000   -5558.594053421446   -5558.594053421446   25039.144066837653  -31781.051320608261    1183.313200349161 
  656000   -5533.260031230642   -5533.260031230642   25098.307917499114  -31783.725953495468    1152.158004765707 
  657000   -5519.877392515384   -5519.877392515384   25120.305599497704  -31783.490463166767    1143.307471153679 
  658000   -5514.740675816091   -5514.740675816091   25213.251279571166  -31782.406108144522    1054.414152757266 
  659000   -5504.390851001441   -5504.390851001441   25247.320838238855  -31782.587958532786    1030.876269292491 
  660000   -5502.075729079279   -5502.075729079279   25179.757125182066  -31784.495178920690    1102.662324659348 
  661000   -5545.570456226254   -5545.570456226254   25172.180102669583  -31781.406540556025    1063.655981660186 
  662000   -5564.910668814151   -5564.910668814151   25096.133203170371  -31785.117067614417    1124.073195629896 
  663000   -5488.088324294702   -5488.088324294702   25209.530295271332  -31779.537348512364    1081.918728946330 
  664000   -5515.191525860457   -5515.191525860457   25202.355282820492  -31783.363965268214    1065.817156587264 
  665000   -5502.958528144303   -5502.958528144303   25219.918664483888  -31781.944259002990    1059.067066374801 
  666000   -5573.409089250530   -5573.409089250530   25106.052363147362  -31784.129225447748    1104.667773049852 
  667000   -5529.694683261027   -5529.694683261027   25150.055919438037  -31780.976261527619    1101.225658828554 
  668000   -5497.426984641876   -5497.426984641876   25198.789844854091  -31779.770578587973    1083.553749092008 
  669000   -5525.213445696336   -5525.213445696336   25096.143308009265  -31779.305809038717    1157.949055333116 
  670000   -5469.984057970149   -5469.984057970149   25270.901608084489  -31785.963076548629    1045.077410493992 
  671000   -5513.048850080915   -5513.048850080915   25251.117317742781  -31781.234732714489    1017.068564890786 
  672000   -5529.417175314604   -5529.417175314604   25194.563639373890  -31781.545883442002    1057.565068753507 
  673000   -5538.696603732638   -5538.696603732638   25139.827763549049  -31783.775813738215    1105.251446456529 
  674000   -5569.913953594605   -5569.913953594605   25141.716707414867  -31779.356528638778    1067.725867629305 
  675000   -5522.086165985209   -5522.086165985209   25144.081574329142  -31781.048771248345    1114.881030933991 
[...]
 4838000   -5495.908221677742   -5495.908221677742   25083.447793640851  -31611.690197399217    1032.334182080625 
 4839000   -5515.862358461145   -5515.862358461145   24976.470528355378  -31607.546210462791    1115.213323646266 
 4840000   -5500.503475346282   -5500.503475346282   24974.325360490842  -31603.231743932869    1128.402908095744 
 4841000   -5506.110027259456   -5506.110027259456   25013.313747016749  -31603.269734071990    1083.845959795787 
 4842000   -5539.603208035089   -5539.603208035089   25044.625748767965  -31608.756870964990    1024.527914161937 
 4843000   -5518.700866391351   -5518.700866391351   25039.740940059350  -31608.653328120083    1050.211521669383 
 4844000   -5501.151537558591   -5501.151537558591   25071.048402171968  -31605.466657885743    1033.266718155186 
 4845000   -5565.639556495826   -5565.639556495826   24931.497678991102  -31608.075752325443    1110.938516838515 
 4846000   -5535.626883370722   -5535.626883370722   24887.495198680495  -31607.324743813377    1184.202661762160 
 4847000   -5529.912545590119   -5529.912545590119   24933.718463374065  -31609.464909331815    1145.833900367629 
 4848000   -5500.838499081499   -5500.838499081499   25000.041254776123  -31604.988576690859    1104.108822833236 
 4849000   -5588.745410423769   -5588.745410423769   24891.001949355723  -31610.021108405548    1130.273748626056 
 4850000   -5485.181004986949   -5485.181004986949   25059.084575827776  -31607.846926626557    1063.581345811828 
 4851000   -5510.936363088065   -5510.936363088065   24970.646679726284  -31605.478354472853    1123.895311658508 
 4852000   -5538.380479547614   -5538.380479547614   24920.586053951363  -31604.941155406632    1145.974621907655 
 4853000   -5481.605427957111   -5481.605427957111   25134.312478923079  -31607.523332681692     991.605425801504 
 4854000   -5564.001394743911   -5564.001394743911   24967.179985860126  -31609.898881238936    1078.717500634895 
 4855000   -5527.190311777533   -5527.190311777533   24946.609934920725  -31607.464454820863    1133.664208122608 
 4856000   -5502.575165131599   -5502.575165131599   24942.320171686282  -31606.438195268642    1161.542858450760 
 4857000   -5475.846035306287   -5475.846035306287   25053.124200600047  -31606.804101510443    1077.833865604104 
 4858000   -5456.918339302149   -5456.918339302149   25080.779469934627  -31606.640534193131    1068.942724956358 
 4859000   -5475.839186329253   -5475.839186329253   25050.135580658061  -31607.833696651611    1081.858929664292 
 4860000   -5440.674519999156   -5440.674519999156   25051.719991023096  -31599.614556339257    1107.220045317007 
 4861000   -5473.696276122166   -5473.696276122166   25019.921171982282  -31607.959868327962    1114.342420223516 
 4862000   -5455.698822523940   -5455.698822523940   25079.676270387623  -31607.491449744153    1072.116356832588 
 4863000   -5535.899346018919   -5535.899346018919   24967.676663528102  -31608.144349131238    1104.568339584218 
 4864000   -5517.893347411362   -5517.893347411362   24964.436589883866  -31599.320184474858    1116.990247179634 
 4865000   -5492.144104932293   -5492.144104932293   25048.623011971253  -31604.642400393179    1063.875283489630 
 4866000   -5455.537588695497   -5455.537588695497   25126.368764619336  -31604.079808496866    1022.173455182038 
 4867000   -5508.802575842499   -5508.802575842499   25084.959557991126  -31606.803835381892    1013.041701548266 
 4868000   -5488.594723696195   -5488.594723696195   25024.561635275059  -31606.617707440026    1093.461348468767 
 4869000   -5550.966994305039   -5550.966994305039   24996.916032130386  -31604.136853777010    1056.253827341587 
 4870000   -5428.906256869843   -5428.906256869843   25119.519638191348  -31604.977569129580    1056.551674068388 
 4871000   -5513.821576062335   -5513.821576062335   25009.923754948722  -31607.964913622734    1084.219582611677 
 4872000   -5530.757155068917   -5530.757155068917   24917.191595114811  -31608.847849818005    1160.899099634281 
 4873000   -5503.686599909161   -5503.686599909161   25037.151700451650  -31606.523282535058    1065.684982174250 
 4874000   -5509.364678653350   -5509.364678653350   25042.657862438988  -31610.598473553677    1058.575932461340 
 4875000   -5489.455024537241   -5489.455024537241   25063.131154135044  -31606.788151498749    1054.201972826467 
 4876000   -5563.881900062246   -5563.881900062246   24952.064966276193  -31608.946044873141    1092.999178534706 
 4877000   -5478.995046053406   -5478.995046053406   25073.059209750492  -31606.166638130566    1054.112382326669 
 4878000   -5539.033404623602   -5539.033404623602   24999.052438745777  -31604.629845797703    1066.544002428326 
 4879000   -5490.582193663744   -5490.582193663744   25084.439339316905  -31607.803439846757    1032.781906866107 
 4880000   -5546.821454444733   -5546.821454444733   24980.411374270887  -31608.351679754818    1081.118851039196 
 4881000   -5525.935432781269   -5525.935432781269   24960.674007419617  -31606.006440403118    1119.397000202232 
 4882000   -5593.582907025055   -5593.582907025055   24804.353754810210  -31609.764070154793    1211.827408319525 
 4883000   -5567.010267582071   -5567.010267582071   24888.206326483200  -31607.764389694592    1152.547795629319 
 4884000   -5490.497343299248   -5490.497343299248   25090.005121636819  -31609.337690056265    1028.835225120194 
 4885000   -5500.862066124875   -5500.862066124875   24976.710839948188  -31604.274615646369    1126.701709573309 
 4886000   -5457.638930562443   -5457.638930562443   25090.637468621760  -31609.763694545891    1061.487295361686 
 4887000   -5465.843884670063   -5465.843884670063   25100.567925971001  -31606.937125829649    1040.525315188585 
 4888000   -5544.314320933401   -5544.314320933401   24999.029584149877  -31609.645941016632    1066.302035933355 
 4889000   -5535.905635235573   -5535.905635235573   24992.393401209280  -31606.723397271882    1078.424360827030 
 4890000   -5581.832591079656   -5581.832591079656   24910.330741920156  -31607.749588679246    1115.586255679429 
 4891000   -5548.617523478755   -5548.617523478755   24952.010952963352  -31607.798062674297    1107.169586232191 
 4892000   -5550.123655790187   -5550.123655790187   24979.777273855689  -31610.417421133494    1080.516491487617 
 4893000   -5451.633703899675   -5451.633703899675   25090.568059786296  -31602.537421388828    1060.335657702857 
 4894000   -5515.975911461795   -5515.975911461795   24920.874577342278  -31600.296543351371    1163.446054547297 
 4895000   -5528.038906520058   -5528.038906520058   24956.334325381511  -31611.260913770981    1126.887681869412 
 4896000   -5505.490225781443   -5505.490225781443   24956.432766936472  -31609.460577454192    1147.537584736279 
 4897000   -5518.823524362579   -5518.823524362579   24949.257425193580  -31609.292663207492    1141.211713651334 
 4898000   -5521.675132313754   -5521.675132313754   24988.018190587914  -31605.388953143105    1095.695630241440 
 4899000   -5536.972813832548   -5536.972813832548   24970.378629987408  -31607.338560047647    1099.987116227694 
 4900000   -5583.090875602575   -5583.090875602575   24924.765694434940  -31603.036915100212    1095.180345062695 
 4901000   -5561.265214760071   -5561.265214760071   24945.112781454376  -31609.521507763395    1103.143511548949 
 4902000   -5565.125819211338   -5565.125819211338   24964.995994403238  -31609.287983774757    1079.166170160180 
 4903000   -5479.927221619040   -5479.927221619040   25021.802001760476  -31605.698539683788    1103.969316304274 
 4904000   -5576.474641733403   -5576.474641733403   24913.672359361906  -31610.214469067330    1120.067467972024 
 4905000   -5509.370998197395   -5509.370998197395   25015.061541870899  -31605.566947505162    1081.134407436867 
 4906000   -5468.014294435023   -5468.014294435023   25059.765893972173  -31606.718241600131    1078.938053192937 
 4907000   -5490.325776017871   -5490.325776017871   25070.674049516896  -31608.351570066970    1047.351744532200 
 4908000   -5539.076472717170   -5539.076472717170   24929.532708612496  -31602.945544778846    1134.336363449176 
 4909000   -5570.830724694206   -5570.830724694206   24944.200085875294  -31606.970567797714    1091.939757228216 
 4910000   -5532.972196721876   -5532.972196721876   24888.648773409957  -31605.090911385083    1183.469941253253 
 4911000   -5487.891901857573   -5487.891901857573   25010.962461320090  -31609.626099975296    1110.771736797632 
 4912000   -5454.160932582588   -5454.160932582588   25039.773770337630  -31611.868761714562    1117.934058794346 
 4913000   -5533.026388347225   -5533.026388347225   24971.837718537736  -31610.279545952570    1105.415439067610 
 4914000   -5534.143400093431   -5534.143400093431   24989.349712325486  -31608.665852384496    1085.172739965575 
 4915000   -5557.419386565864   -5557.419386565864   24947.517117927120  -31607.429400947356    1102.492896454373 
 4916000   -5545.036287243511   -5545.036287243511   24995.934747694409  -31605.740955336878    1064.769920398956 
 4917000   -5548.234928081951   -5548.234928081951   24945.863343280209  -31607.789971566264    1113.691700204104 
 4918000   -5537.099689158447   -5537.099689158447   25031.391139603209  -31608.983927612589    1040.493098850933 
 4919000   -5440.717314214948   -5440.717314214948   25129.071732089920  -31607.681801634804    1037.892755329934 
 4920000   -5458.956324712435   -5458.956324712435   25176.838293217217  -31611.081258457300     975.286640527649 
 4921000   -5454.018051436989   -5454.018051436989   25039.986524889664  -31604.530042039190    1110.525465712537 
 4922000   -5580.319665650735   -5580.319665650735   24939.596219741507  -31609.581322196438    1089.665436804197 
 4923000   -5517.408438600956   -5517.408438600956   25016.058760556585  -31603.405190111975    1069.937990954430 
 4924000   -5499.597701323044   -5499.597701323044   25042.200345806843  -31605.687635678623    1063.889588548737 
 4925000   -5549.361014804523   -5549.361014804523   24937.732643229680  -31602.227568733342    1115.133910699143 
 4926000   -5499.014906939585   -5499.014906939585   25022.041851209739  -31608.102978867173    1087.046220717854 
 4927000   -5518.243405450976   -5518.243405450976   24962.999757227666  -31604.134182520687    1122.891019842049 
 4928000   -5495.897897315328   -5495.897897315328   25115.950792049975  -31604.980830670738     993.132141305435 
 4929000   -5464.294662575649   -5464.294662575649   25083.788285528095  -31604.892510712383    1056.809562608639 
 4930000   -5604.852417239828   -5604.852417239828   24865.205640323671  -31610.481400983368    1140.423343419864 
 4931000   -5561.654824595047   -5561.654824595047   24992.394563731621  -31612.198490604547    1058.149102277882 
 4932000   -5544.442995592432   -5544.442995592432   24888.036798309764  -31606.938798783598    1174.459004881401 
 4933000   -5395.538582688299   -5395.538582688299   25234.840289050320  -31607.154502596724     976.775630858105 
 4934000   -5534.380725573519   -5534.380725573519   25028.442909000274  -31611.152854929289    1048.329220355494 
 4935000   -5444.954278822883   -5444.954278822883   25118.886118633258  -31607.997872991913    1044.157475535769 
 4936000   -5501.337128048417   -5501.337128048417   25062.012758902820  -31609.109663241125    1045.759776289884 
 4937000   -5554.148899012143   -5554.148899012143   24956.013960445172  -31605.976856106692    1095.813996649377 
 4938000   -5455.796788151369   -5455.796788151369   25079.006177950359  -31604.999053057887    1070.196086956164 
 4939000   -5497.242619732569   -5497.242619732569   25049.237697091019  -31605.896723158723    1059.416406335134 
 4940000   -5530.483456089944   -5530.483456089944   25007.464828946082  -31606.075010354220    1068.126725318193 
 4941000   -5525.403085369628   -5525.403085369628   24969.370919952649  -31606.187337171861    1111.413331849581 
 4942000   -5527.533756539837   -5527.533756539837   24965.045739917539  -31603.720765669204    1111.141269211827 
 4943000   -5499.495214451086   -5499.495214451086   24965.252672166771  -31607.068578139166    1142.320691521306 
 4944000   -5533.873442591619   -5533.873442591619   24979.049658280310  -31605.027245730336    1092.104144858409 
 4945000   -5513.359134527385   -5513.359134527385   25035.568434053326  -31609.351009967122    1060.423441386411 
 4946000   -5529.074157191946   -5529.074157191946   24926.109259729805  -31603.425938337445    1148.242521415696 
 4947000   -5522.363060633532   -5522.363060633532   25050.448336682766  -31612.324986142845    1039.513588826548 
 4948000   -5561.755686900877   -5561.755686900877   24833.406024454471  -31609.000661798033    1213.838950442683 
 4949000   -5419.044574760643   -5419.044574760643   25095.028297016212  -31607.646977647786    1093.574105870932 
 4950000   -5534.666720730944   -5534.666720730944   24985.671808447434  -31606.133347236097    1085.794818057722 
 4951000   -5538.255547765846   -5538.255547765846   24981.295160859190  -31606.235444293037    1086.684735668002 
 4952000   -5517.009028801334   -5517.009028801334   25010.112813802531  -31608.711463006555    1081.589620402692 
 4953000   -5450.636878453239   -5450.636878453239   25151.467955575485  -31605.252251715872    1003.147417687145 
 4954000   -5518.700997144919   -5518.700997144919   24945.612892329293  -31607.841849385302    1143.527959911089 
 4955000   -5514.911623499993   -5514.911623499993   24988.916397220975  -31605.981457653124    1102.153436932155 
 4956000   -5489.795151301783   -5489.795151301783   25036.905299796883  -31608.888956835428    1082.188505736766 
 4957000   -5512.337767676203   -5512.337767676203   25083.510793580710  -31607.029668902309    1011.181107645398 
 4958000   -5517.610561490284   -5517.610561490284   24990.888785571588  -31608.249218969133    1099.749871907257 
 4959000   -5470.101897817247   -5470.101897817247   24975.872685967744  -31602.740501741042    1156.765917956050 
 4960000   -5534.423279180759   -5534.423279180759   24930.254449709420  -31607.517406415551    1142.839677525373 
 4961000   -5542.501340405710   -5542.501340405710   24999.913902438449  -31607.496941459645    1065.081698615492 
 4962000   -5509.445597274804   -5509.445597274804   25010.957322515875  -31608.497740510189    1088.094820719507 
 4963000   -5459.945494408512   -5459.945494408512   25028.889737168920  -31612.509763903978    1123.674532326549 
 4964000   -5524.248840621429   -5524.248840621429   25032.870025469150  -31608.478927873282    1051.360061782702 
 4965000   -5553.649566631822   -5553.649566631822   24930.525540673847  -31609.468119062134    1125.293011756460 
 4966000   -5555.440731779345   -5555.440731779345   24948.870993108365  -31608.085475638967    1103.773750751259 
 4967000   -5481.753414422212   -5481.753414422212   25066.044103124230  -31605.068662603142    1057.271145056696 
 4968000   -5535.840304640969   -5535.840304640969   24937.989219585404  -31606.923802678681    1133.094278452306 
 4969000   -5496.574846075167   -5496.574846075167   25046.853485810243  -31605.438201318004    1062.009869432595 
 4970000   -5505.030611946033   -5505.030611946033   24984.699911114785  -31603.095866696527    1113.365343635715 
 4971000   -5534.923165390464   -5534.923165390464   24997.895023600333  -31604.882524571418    1072.064335580619 
 4972000   -5512.686917450104   -5512.686917450104   24991.732795213906  -31608.373832121208    1103.954119457193 
 4973000   -5561.713599302220   -5561.713599302220   24897.771378152025  -31610.030511563495    1150.545534109252 
 4974000   -5525.545209539086   -5525.545209539086   24979.372681237131  -31605.193209243855    1100.275318467637 
 4975000   -5578.075922951390   -5578.075922951390   24909.531366799747  -31608.590535805659    1120.983246054522 
 4976000   -5609.600759067056   -5609.600759067056   24874.330824319266  -31609.986697758104    1126.055114371779 
 4977000   -5468.769485219742   -5468.769485219742   25099.681395225369  -31605.908579715986    1037.457699270876 
 4978000   -5575.506081420030   -5575.506081420030   24934.362749363165  -31609.884773429043    1100.015942645850 
 4979000   -5577.702911268589   -5577.702911268589   24893.953110304177  -31608.810792405577    1137.154770832811 
 4980000   -5571.214709063246   -5571.214709063246   24924.239679071296  -31607.849333689450    1112.394945554910 
 4981000   -5504.807484455941   -5504.807484455941   25010.691415418980  -31603.218435197028    1087.719535322108 
 4982000   -5567.377049019717   -5567.377049019717   25014.172274735320  -31606.222405711407    1024.673081956367 
 4983000   -5526.293952816392   -5526.293952816392   24986.862924873232  -31609.400236295191    1096.243358605568 
 4984000   -5543.121377859759   -5543.121377859759   24930.771003581569  -31608.218895845239    1134.326514403913 
 4985000   -5484.570089928406   -5484.570089928406   25063.874972612302  -31605.329854470896    1056.884791930187 
 4986000   -5531.923034374759   -5531.923034374759   24915.660837547151  -31611.068362264530    1163.484490342619 
 4987000   -5481.816954840433   -5481.816954840433   25080.987433855131  -31614.505858959743    1051.701470264173 
 4988000   -5506.479066760261   -5506.479066760261   25049.458788191274  -31607.218681555943    1051.280826604407 
 4989000   -5502.243289455768   -5502.243289455768   25055.317558542563  -31608.885916847325    1051.325068848992 
 4990000   -5559.223970715029   -5559.223970715029   24926.092137460655  -31606.884692464548    1121.568584288865 
 4991000   -5558.423571199590   -5558.423571199590   24864.888557003749  -31605.565843913133    1182.253715709788 
 4992000   -5517.571827170999   -5517.571827170999   24951.007782389817  -31603.717629919392    1135.138020358577 
 4993000   -5429.649547465600   -5429.649547465600   25094.387102817662  -31606.047450837843    1082.010800554580 
 4994000   -5476.167175261002   -5476.167175261002   25059.005624044148  -31609.431494164903    1074.258694859752 
 4995000   -5477.463384149301   -5477.463384149301   25082.360998542197  -31607.705077075119    1047.880694383618 
 4996000   -5548.731732208285   -5548.731732208285   24882.930276779032  -31609.123977433173    1177.461968445855 
 4997000   -5474.133339896489   -5474.133339896489   25063.633250252704  -31608.480165534558    1070.713575385366 
 4998000   -5531.810538688376   -5531.810538688376   25048.833240719283  -31605.794201721088    1025.150422313427 
 4999000   -5512.515483852982   -5512.515483852982   25021.707199176293  -31602.156505483374    1067.933822454101 
 5000000   -5505.417990510978   -5505.417990510978   24980.771995866395  -31609.539650761384    1123.349664384017 
Loop time of 30.0764 on 8 procs for 5001 steps with 1503 atoms

Performance: 14.366 ns/day, 1.671 hours/ns, 166.276 timesteps/s
98.8% CPU use with 8 MPI tasks x 1 OpenMP threads

MPI task timing breakdown:
Section |  min time  |  avg time  |  max time  |%varavg| %total
---------------------------------------------------------------
Pair    | 0          | 0          | 0          |   0.0 |  0.00
Bond    | 0          | 0          | 0          |   0.0 |  0.00
Kspace  | 0          | 0          | 0          |   0.0 |  0.00
Neigh   | 0          | 0          | 0          |   0.0 |  0.00
Comm    | 0          | 0          | 0          |   0.0 |  0.00
Output  | 0          | 0          | 0          |   0.0 |  0.00
Modify  | 0          | 0          | 0          |   0.0 |  0.00
Other   |            | 30.08      |            |       |100.00

Nlocal:    187.875 ave 198 max 177 min
Histogram: 1 0 0 1 2 2 0 1 0 1
Nghost:    4629.38 ave 4666 max 4602 min
Histogram: 1 0 2 2 0 1 1 0 0 1
Neighs:    68277.1 ave 73179 max 63465 min
Histogram: 1 0 0 1 4 0 0 0 1 1

Total # of neighbors = 546217
Ave neighs/atom = 363.418
Ave special neighs/atom = 2
Neighbor list builds = 0
Dangerous builds = 0
Total wall time: 0:01:30
