LAMMPS (3 Mar 2020)
  using 1 OpenMP thread(s) per MPI task
Reading data file ...
  orthogonal box = (0 0 0) to (24 24 24)
  2 by 2 by 2 MPI processor grid
  reading atoms ...
  1503 atoms
  scanning bonds ...
  2 = max bonds/atom
  scanning angles ...
  1 = max angles/atom
  reading bonds ...
  1002 bonds
  reading angles ...
  501 angles
Finding 1-2 1-3 1-4 neighbors ...
  special bond factors lj:   0          0          0         
  special bond factors coul: 0          0          0         
  2 = max # of 1-2 neighbors
  1 = max # of 1-3 neighbors
  1 = max # of 1-4 neighbors
  2 = max # of special neighbors
  special bonds CPU = 0.00133187 secs
  read_data CPU = 0.00948727 secs
Setting atom values ...
  1 settings made for charge
Setting atom values ...
  2 settings made for charge
WARNING: Using 'neigh_modify every 1 delay 0 check yes' setting during minimization (src/min.cpp:190)
PPPM initialization ...
  using 12-bit tables for long-range coulomb (src/kspace.cpp:332)
  G vector (1/distance) = 0.315108
  grid = 24 24 24
  stencil order = 5
  estimated absolute RMS force accuracy = 0.00171057
  estimated relative force accuracy = 5.15132e-06
  using double precision MKL FFT
  3d grid and FFT values/proc = 6859 1728
Neighbor list info ...
  update every 1 steps, delay 0 steps, check yes
  max neighbors/atom: 2000, page size: 100000
  master list distance cutoff = 12
  ghost atom cutoff = 12
  binsize = 6, bins = 4 4 4
  3 neighbor lists, perpetual/occasional/extra = 3 0 0
  (1) pair lj/cut/coul/long, perpetual, skip from (3)
      attributes: half, newton on
      pair build: skip
      stencil: none
      bin: none
  (2) pair lj/cut/coul/long/soft, perpetual, skip from (3)
      attributes: half, newton on
      pair build: skip
      stencil: none
      bin: none
  (3) neighbor class addition, perpetual
      attributes: half, newton on
      pair build: half/bin/newton
      stencil: half/bin/3d/newton
      bin: standard
Setting up cg style minimization ...
  Unit style    : real
  Current step  : 0
Per MPI rank memory allocation (min/avg/max) = 10.15 | 10.15 | 10.16 Mbytes
Step Temp E_pair E_mol TotEng Press 
       0            0   -234.13586   0.56510211   -233.57076    17940.626 
      69            0   -6801.5542     364.1187   -6437.4355   -3720.5795 
Loop time of 0.259906 on 8 procs for 69 steps with 1503 atoms

98.6% CPU use with 8 MPI tasks x 1 OpenMP threads

Minimization stats:
  Stopping criterion = energy tolerance
  Energy initial, next-to-last, final = 
        -233.570755138     -6433.18785544     -6437.43545664
  Force two-norm initial, final = 680.776 97.4191
  Force max component initial, final = 40.0728 11.8127
  Final line search alpha, max atom move = 0.00378892 0.0447573
  Iterations, force evaluations = 69 121

MPI task timing breakdown:
Section |  min time  |  avg time  |  max time  |%varavg| %total
---------------------------------------------------------------
Pair    | 0.17712    | 0.18104    | 0.18516    |   0.6 | 69.66
Bond    | 0.00063149 | 0.00065219 | 0.00068392 |   0.0 |  0.25
Kspace  | 0.054998   | 0.059026   | 0.063084   |   1.0 | 22.71
Neigh   | 0.0043621  | 0.0043796  | 0.0044173  |   0.0 |  1.69
Comm    | 0.011777   | 0.011955   | 0.012223   |   0.1 |  4.60
Output  | 0          | 0          | 0          |   0.0 |  0.00
Modify  | 0          | 0          | 0          |   0.0 |  0.00
Other   |            | 0.002853   |            |       |  1.10

Nlocal:    187.875 ave 192 max 186 min
Histogram: 3 1 0 1 0 2 0 0 0 1
Nghost:    4884.75 ave 4906 max 4874 min
Histogram: 3 1 1 0 0 1 1 0 0 1
Neighs:    72777 ave 75530 max 70962 min
Histogram: 1 0 1 3 2 0 0 0 0 1

Total # of neighbors = 582216
Ave neighs/atom = 387.369
Ave special neighs/atom = 2
Neighbor list builds = 3
Dangerous builds = 0
Finding SHAKE clusters ...
  0 = # of size 2 clusters
  0 = # of size 3 clusters
  0 = # of size 4 clusters
  501 = # of frozen angles
  find clusters CPU = 0.000248481 secs
PPPM initialization ...
  using 12-bit tables for long-range coulomb (src/kspace.cpp:332)
  G vector (1/distance) = 0.315108
  grid = 24 24 24
  stencil order = 5
  estimated absolute RMS force accuracy = 0.00171057
  estimated relative force accuracy = 5.15132e-06
  using double precision MKL FFT
  3d grid and FFT values/proc = 6859 1728
Neighbor list info ...
  update every 1 steps, delay 10 steps, check yes
  max neighbors/atom: 2000, page size: 100000
  master list distance cutoff = 12
  ghost atom cutoff = 12
  binsize = 6, bins = 4 4 4
  3 neighbor lists, perpetual/occasional/extra = 3 0 0
  (1) pair lj/cut/coul/long, perpetual, skip from (3)
      attributes: half, newton on
      pair build: skip
      stencil: none
      bin: none
  (2) pair lj/cut/coul/long/soft, perpetual, skip from (3)
      attributes: half, newton on
      pair build: skip
      stencil: none
      bin: none
  (3) neighbor class addition, perpetual
      attributes: half, newton on
      pair build: half/bin/newton
      stencil: half/bin/3d/newton
      bin: standard
Setting up Verlet run ...
  Unit style    : real
  Current step  : 69
  Time step     : 1
Per MPI rank memory allocation (min/avg/max) = 9.904 | 9.905 | 9.906 Mbytes
Step Temp TotEng PotEng E_bond E_angle E_dihed E_coul E_long E_vdwl 
      69     300.000000   -5906.416895   -6801.554153       0.000000       0.000000       0.000000   23604.249236  -31790.242919    1384.439530 
   10000     301.021792   -4651.149185   -5549.335256       0.000000       0.000000       0.000000   25095.382783  -31784.881150    1140.163112 
   20000     303.504391   -4605.883102   -5511.476729       0.000000       0.000000       0.000000   25206.374509  -31779.875602    1062.024364 
   30000     310.991494   -4585.009197   -5512.942774       0.000000       0.000000       0.000000   25146.749777  -31781.640084    1121.947532 
   40000     296.982171   -4599.364312   -5485.497000       0.000000       0.000000       0.000000   25174.565326  -31777.603004    1117.540677 
   50000     288.373600   -4668.403729   -5528.850241       0.000000       0.000000       0.000000   25135.058576  -31784.654379    1120.745562 
   60000     290.721794   -4635.618443   -5503.071476       0.000000       0.000000       0.000000   25264.618742  -31777.545922    1009.855704 
   70000     300.875909   -4591.682108   -5489.432894       0.000000       0.000000       0.000000   25260.174732  -31780.813114    1031.205487 
   80000     279.369893   -4685.437997   -5519.019329       0.000000       0.000000       0.000000   25203.430678  -31782.011345    1059.561338 
   90000     294.314618   -4641.414996   -5519.588262       0.000000       0.000000       0.000000   25106.778100  -31781.867150    1155.500788 
  100000     299.639876   -4608.818110   -5502.880833       0.000000       0.000000       0.000000   25147.885907  -31783.374214    1132.607474 
  110000     310.322276   -4588.305505   -5514.242276       0.000000       0.000000       0.000000   25163.806162  -31782.750809    1104.702371 
  120000     314.464895   -4586.468940   -5524.766420       0.000000       0.000000       0.000000   25156.967681  -31779.273132    1097.539031 
  130000     294.982757   -4629.606236   -5509.773091       0.000000       0.000000       0.000000   25170.320375  -31779.671495    1099.578029 
  140000     306.489515   -4588.892326   -5503.392939       0.000000       0.000000       0.000000   25185.514371  -31778.359843    1089.452533 
  150000     290.282840   -4692.669029   -5558.812315       0.000000       0.000000       0.000000   25144.904888  -31786.492812    1082.775609 
  160000     298.738426   -4587.568847   -5478.941833       0.000000       0.000000       0.000000   25282.847195  -31784.755629    1022.966601 
  170000     320.890154   -4537.289628   -5494.758735       0.000000       0.000000       0.000000   25218.736324  -31783.206304    1069.711245 
  180000     299.205449   -4597.478258   -5490.244742       0.000000       0.000000       0.000000   25208.188418  -31784.239644    1085.806484 
  190000     309.702779   -4622.602178   -5546.690501       0.000000       0.000000       0.000000   25138.406695  -31777.711140    1092.613944 
  200000     300.247864   -4534.830738   -5430.707569       0.000000       0.000000       0.000000   25265.218828  -31780.328520    1084.402123 
  210000     293.762512   -4644.103834   -5520.629732       0.000000       0.000000       0.000000   25233.075035  -31784.048939    1030.344172 
  220000     302.302358   -4652.724400   -5554.731413       0.000000       0.000000       0.000000   25084.025324  -31784.593066    1145.836329 
  230000     298.308005   -4579.555708   -5469.644406       0.000000       0.000000       0.000000   25290.880510  -31783.348840    1022.823925 
  240000     308.242921   -4631.917419   -5551.649828       0.000000       0.000000       0.000000   25119.638455  -31787.065426    1115.777143 
  250000     300.622655   -4642.957807   -5539.952937       0.000000       0.000000       0.000000   25192.113108  -31782.529692    1050.463647 
  260000     300.538639   -4590.208572   -5486.953015       0.000000       0.000000       0.000000   25163.141446  -31777.524666    1127.430205 
  270000     294.913947   -4619.686138   -5499.647677       0.000000       0.000000       0.000000   25178.858638  -31780.978121    1102.471807 
  280000     308.336016   -4572.981342   -5492.991528       0.000000       0.000000       0.000000   25212.270594  -31776.258391    1070.996269 
  290000     300.044836   -4709.914841   -5605.185881       0.000000       0.000000       0.000000   25118.548778  -31783.487407    1059.752749 
  300000     303.367294   -4635.134459   -5540.319019       0.000000       0.000000       0.000000   25152.130536  -31781.439251    1088.989696 
  310000     285.231639   -4644.475255   -5495.546811       0.000000       0.000000       0.000000   25220.464142  -31783.107297    1067.096345 
  320000     287.584316   -4680.952139   -5539.043594       0.000000       0.000000       0.000000   25162.003793  -31783.167999    1082.120612 
  330000     295.244040   -4626.719483   -5507.665952       0.000000       0.000000       0.000000   25215.678267  -31780.004740    1056.660522 
  340000     281.903156   -4682.310061   -5523.450121       0.000000       0.000000       0.000000   25147.357160  -31783.416534    1112.609254 
  350000     297.519341   -4611.989476   -5499.724967       0.000000       0.000000       0.000000   25173.766401  -31778.892409    1105.401041 
  360000     296.689740   -4624.191361   -5509.451495       0.000000       0.000000       0.000000   25149.500464  -31776.881368    1117.929410 
  370000     300.302415   -4607.784521   -5503.824121       0.000000       0.000000       0.000000   25131.189977  -31780.917724    1145.903626 
  380000     307.583363   -4581.272096   -5499.036523       0.000000       0.000000       0.000000   25172.248461  -31781.490406    1110.205422 
  390000     302.035996   -4622.990754   -5524.202998       0.000000       0.000000       0.000000   25175.400128  -31782.066190    1082.463064 
  400000     295.731750   -4606.389471   -5488.791164       0.000000       0.000000       0.000000   25191.394496  -31778.536671    1098.351011 
  410000     296.654450   -4579.775242   -5464.930080       0.000000       0.000000       0.000000   25197.924601  -31779.500090    1116.645408 
  420000     298.878057   -4685.740173   -5577.529787       0.000000       0.000000       0.000000   25073.172225  -31783.451929    1132.749917 
  430000     304.290757   -4645.591056   -5553.531036       0.000000       0.000000       0.000000   25110.146010  -31783.519133    1119.842087 
  440000     297.525915   -4594.987145   -5482.742252       0.000000       0.000000       0.000000   25204.489548  -31782.597065    1095.365265 
  450000     294.475860   -4588.051404   -5466.705783       0.000000       0.000000       0.000000   25236.965398  -31782.326980    1078.655800 
  460000     303.952293   -4599.402954   -5506.333028       0.000000       0.000000       0.000000   25243.181382  -31781.215762    1031.701353 
  470000     302.085713   -4688.204319   -5589.564907       0.000000       0.000000       0.000000   25072.965589  -31785.187461    1122.656965 
  480000     291.597693   -4641.774818   -5511.841350       0.000000       0.000000       0.000000   25194.991611  -31779.308245    1072.475284 
  490000     298.931536   -4618.739461   -5510.688646       0.000000       0.000000       0.000000   25107.619462  -31782.787617    1164.479509 
  500000     312.220799   -4657.486529   -5589.088095       0.000000       0.000000       0.000000   25106.181661  -31783.986484    1088.716728 
  510000     300.003993   -4603.159742   -5498.308913       0.000000       0.000000       0.000000   25192.805436  -31779.050522    1087.936173 
  520000     306.473077   -4611.729815   -5526.181381       0.000000       0.000000       0.000000   25080.545723  -31781.835214    1175.108110 
  530000     295.649249   -4614.312405   -5496.467931       0.000000       0.000000       0.000000   25246.598143  -31778.101729    1035.035655 
  540000     308.367628   -4590.489765   -5510.594276       0.000000       0.000000       0.000000   25170.331744  -31781.993463    1101.067442 
  550000     296.295243   -4621.790987   -5505.874025       0.000000       0.000000       0.000000   25135.332127  -31782.952128    1141.745976 
  560000     294.103944   -4678.127929   -5555.672589       0.000000       0.000000       0.000000   25094.446845  -31785.631223    1135.511790 
  570000     300.233453   -4624.888436   -5520.722268       0.000000       0.000000       0.000000   25190.758106  -31782.618367    1071.137993 
  580000     302.557784   -4652.872854   -5555.642004       0.000000       0.000000       0.000000   25172.058609  -31782.036127    1054.335514 
  590000     301.934782   -4693.358455   -5594.268699       0.000000       0.000000       0.000000   25122.508550  -31782.459775    1065.682527 
  600000     299.308180   -4607.293184   -5500.366197       0.000000       0.000000       0.000000   25199.115344  -31778.235153    1078.753612 
  610000     303.574157   -4652.049203   -5557.850998       0.000000       0.000000       0.000000   25178.507976  -31780.820085    1044.461111 
  620000     300.488930   -4612.175562   -5508.771684       0.000000       0.000000       0.000000   25148.989798  -31777.245021    1119.483539 
  630000     289.820275   -4610.013973   -5474.777060       0.000000       0.000000       0.000000   25237.193374  -31779.572216    1067.601781 
  640000     292.674538   -4677.964868   -5551.244479       0.000000       0.000000       0.000000   25131.324277  -31783.013694    1100.444939 
  650000     295.905962   -4620.889677   -5503.811182       0.000000       0.000000       0.000000   25161.930315  -31782.657955    1116.916457 
  660000     311.846378   -4578.122989   -5508.607363       0.000000       0.000000       0.000000   25207.128319  -31787.241772    1071.506091 
  670000     294.659723   -4653.844436   -5533.047424       0.000000       0.000000       0.000000   25109.744940  -31782.865909    1140.073545 
  680000     292.800555   -4646.845646   -5520.501266       0.000000       0.000000       0.000000   25150.092292  -31784.793379    1114.199822 
  690000     286.404926   -4694.087643   -5548.660042       0.000000       0.000000       0.000000   25110.393295  -31782.215864    1123.162526 
  700000     298.683500   -4598.743843   -5489.952940       0.000000       0.000000       0.000000   25168.637765  -31782.794917    1124.204212 
  710000     297.843862   -4587.171571   -5475.875366       0.000000       0.000000       0.000000   25251.105483  -31777.156731    1050.175882 
  720000     294.877182   -4658.301430   -5538.153270       0.000000       0.000000       0.000000   25179.175374  -31781.678620    1064.349976 
  730000     309.774032   -4545.669599   -5469.970524       0.000000       0.000000       0.000000   25262.176297  -31782.986227    1050.839406 
  740000     291.622703   -4682.449274   -5552.590430       0.000000       0.000000       0.000000   25112.157144  -31779.728825    1114.981251 
  750000     302.855328   -4614.400871   -5518.057830       0.000000       0.000000       0.000000   25090.324550  -31781.409888    1173.027508 
  760000     312.628453   -4600.432932   -5533.250854       0.000000       0.000000       0.000000   25212.582578  -31781.398727    1035.565295 
  770000     287.983523   -4754.979608   -5614.262212       0.000000       0.000000       0.000000   25018.133189  -31783.159326    1150.763925 
  780000     314.306725   -4560.967952   -5498.793486       0.000000       0.000000       0.000000   25169.554730  -31780.811584    1112.463368 
  790000     297.622010   -4586.640189   -5474.682023       0.000000       0.000000       0.000000   25194.333362  -31780.658131    1111.642746 
  800000     312.672091   -4544.428505   -5477.376633       0.000000       0.000000       0.000000   25275.266115  -31781.571848    1028.929100 
  810000     295.366480   -4556.397989   -5437.709793       0.000000       0.000000       0.000000   25290.016343  -31777.893303    1050.167167 
  820000     294.925726   -4637.641004   -5517.637688       0.000000       0.000000       0.000000   25268.618450  -31783.719292     997.463154 
  830000     306.438645   -4584.219743   -5498.568573       0.000000       0.000000       0.000000   25204.231483  -31781.501980    1078.701925 
  840000     308.250502   -4563.860754   -5483.615783       0.000000       0.000000       0.000000   25180.076927  -31782.023509    1118.330799 
  850000     304.254185   -4563.278805   -5471.109661       0.000000       0.000000       0.000000   25259.665051  -31778.144578    1047.369866 
  860000     296.535093   -4600.872726   -5485.671426       0.000000       0.000000       0.000000   25195.719076  -31779.514201    1098.123698 
  870000     287.112496   -4677.786165   -5534.469805       0.000000       0.000000       0.000000   25095.838208  -31782.917198    1152.609185 
  880000     310.439008   -4631.325618   -5557.610692       0.000000       0.000000       0.000000   25135.218558  -31784.684581    1091.855331 
  890000     295.105956   -4658.658398   -5539.192854       0.000000       0.000000       0.000000   25025.905001  -31782.386012    1217.288157 
  900000     308.798500   -4608.172211   -5529.562353       0.000000       0.000000       0.000000   25177.132411  -31783.824635    1077.129871 
  910000     294.642069   -4638.993378   -5518.143691       0.000000       0.000000       0.000000   25159.100199  -31783.544044    1106.300154 
  920000     285.218895   -4591.247562   -5442.281095       0.000000       0.000000       0.000000   25271.646816  -31780.449715    1066.521804 
  930000     313.913404   -4598.367770   -5535.019715       0.000000       0.000000       0.000000   25114.447991  -31786.065391    1136.597685 
  940000     290.561222   -4680.843884   -5547.817803       0.000000       0.000000       0.000000   25102.773892  -31782.286655    1131.694960 
  950000     314.479386   -4540.207329   -5478.548048       0.000000       0.000000       0.000000   25277.796001  -31780.937417    1024.593368 
  960000     289.386214   -4585.784131   -5449.252070       0.000000       0.000000       0.000000   25335.900664  -31785.316730    1000.163997 
  970000     291.135453   -4681.092292   -5549.779596       0.000000       0.000000       0.000000   25169.162813  -31781.326180    1062.383770 
  980000     306.362870   -4634.949856   -5549.072587       0.000000       0.000000       0.000000   25185.157652  -31782.186468    1047.956229 
  990000     307.663101   -4532.997633   -5450.999980       0.000000       0.000000       0.000000   25295.070420  -31780.341426    1034.271025 
 1000000     298.388494   -4608.881295   -5499.210156       0.000000       0.000000       0.000000   25198.527840  -31779.831883    1082.093887 
 1000069     319.569129   -4587.185130   -5540.712575       0.000000       0.000000       0.000000   25129.185096  -31780.800930    1110.903259 
Loop time of 1970.54 on 8 procs for 1000000 steps with 1503 atoms

Performance: 43.846 ns/day, 0.547 hours/ns, 507.476 timesteps/s
99.2% CPU use with 8 MPI tasks x 1 OpenMP threads

MPI task timing breakdown:
Section |  min time  |  avg time  |  max time  |%varavg| %total
---------------------------------------------------------------
Pair    | 978.45     | 985.23     | 995.74     |  18.2 | 50.00
Bond    | 0.2654     | 0.30454    | 0.37907    |   7.4 |  0.02
Kspace  | 524.27     | 533.46     | 540.41     |  23.3 | 27.07
Neigh   | 70.623     | 70.675     | 70.73      |   0.5 |  3.59
Comm    | 90.681     | 93.417     | 96.258     |  15.2 |  4.74
Output  | 0.0042288  | 0.0046861  | 0.0077599  |   1.7 |  0.00
Modify  | 267.09     | 277.23     | 285.56     |  28.0 | 14.07
Other   |            | 10.22      |            |       |  0.52

Nlocal:    187.875 ave 201 max 176 min
Histogram: 2 0 1 0 1 0 1 1 1 1
Nghost:    4575.75 ave 4656 max 4486 min
Histogram: 1 0 2 1 0 0 0 1 2 1
Neighs:    67095.9 ave 71921 max 61931 min
Histogram: 2 1 0 0 0 1 0 2 1 1

Total # of neighbors = 536767
Ave neighs/atom = 357.13
Ave special neighs/atom = 2
Neighbor list builds = 43366
Dangerous builds = 0
PPPM initialization ...
  using 12-bit tables for long-range coulomb (src/kspace.cpp:332)
  G vector (1/distance) = 0.312926
  grid = 24 24 24
  stencil order = 5
  estimated absolute RMS force accuracy = 0.00187381
  estimated relative force accuracy = 5.64293e-06
  using double precision MKL FFT
  3d grid and FFT values/proc = 6859 1728
Neighbor list info ...
  update every 1 steps, delay 10 steps, check yes
  max neighbors/atom: 2000, page size: 100000
  master list distance cutoff = 12
  ghost atom cutoff = 12
  binsize = 6, bins = 5 5 5
  3 neighbor lists, perpetual/occasional/extra = 3 0 0
  (1) pair lj/cut/coul/long, perpetual, skip from (3)
      attributes: half, newton on
      pair build: skip
      stencil: none
      bin: none
  (2) pair lj/cut/coul/long/soft, perpetual, skip from (3)
      attributes: half, newton on
      pair build: skip
      stencil: none
      bin: none
  (3) neighbor class addition, perpetual
      attributes: half, newton on
      pair build: half/bin/newton
      stencil: half/bin/3d/newton
      bin: standard
Setting up Verlet run ...
  Unit style    : real
  Current step  : 0
  Time step     : 1
Per MPI rank memory allocation (min/avg/max) = 10.91 | 10.91 | 10.91 Mbytes
Step Temp TotEng PotEng E_bond E_angle E_dihed E_coul E_long E_vdwl 
       0     319.569129   -4587.182708   -5540.710153       0.000000       0.000000       0.000000   24909.636218  -31561.249631    1110.903259 
   10000     296.245386   -4642.935849   -5526.870125       0.000000       0.000000       0.000000   24961.158132  -31566.491751    1078.463494 
   20000     289.516132   -4654.012398   -5517.867987       0.000000       0.000000       0.000000   24929.415329  -31559.413454    1112.130138 
   30000     297.469568   -4623.736574   -5511.323551       0.000000       0.000000       0.000000   24968.826881  -31559.918514    1079.768082 
   40000     309.605115   -4611.252009   -5535.048922       0.000000       0.000000       0.000000   24925.082080  -31563.046619    1102.915617 
   50000     282.798875   -4705.485458   -5549.298157       0.000000       0.000000       0.000000   24807.137024  -31559.850749    1203.415567 
   60000     296.714554   -4654.564165   -5539.898338       0.000000       0.000000       0.000000   24921.471949  -31563.632070    1102.261783 
   70000     311.839996   -4621.112854   -5551.578184       0.000000       0.000000       0.000000   24928.648279  -31562.721172    1082.494709 
   80000     285.433058   -4738.500817   -5590.173367       0.000000       0.000000       0.000000   24874.960212  -31564.035737    1098.902159 
   90000     311.848400   -4600.421140   -5530.911545       0.000000       0.000000       0.000000   24913.951437  -31560.356698    1115.493717 
  100000     293.426013   -4664.077300   -5539.599156       0.000000       0.000000       0.000000   24932.363539  -31563.691592    1091.728898 
  110000     300.060164   -4615.583651   -5510.900426       0.000000       0.000000       0.000000   24965.842878  -31562.536246    1085.792942 
  120000     295.784855   -4616.505023   -5499.065170       0.000000       0.000000       0.000000   25005.159874  -31563.207214    1058.982170 
  130000     308.353960   -4613.452800   -5533.516529       0.000000       0.000000       0.000000   24936.327654  -31564.199704    1094.355521 
  140000     295.567223   -4625.456538   -5507.367316       0.000000       0.000000       0.000000   25007.168404  -31566.946449    1052.410729 
  150000     306.827709   -4661.396998   -5576.906711       0.000000       0.000000       0.000000   24879.681027  -31559.811902    1103.224165 
  160000     303.770466   -4669.530624   -5575.918163       0.000000       0.000000       0.000000   24867.644365  -31559.836132    1116.273604 
  170000     296.440044   -4626.481970   -5510.997063       0.000000       0.000000       0.000000   24926.298414  -31558.382735    1121.087258 
  180000     313.344204   -4605.565884   -5540.519456       0.000000       0.000000       0.000000   24977.508713  -31565.424677    1047.396508 
  190000     303.326854   -4676.415086   -5581.478980       0.000000       0.000000       0.000000   24845.110229  -31566.097572    1139.508363 
  200000     304.127281   -4676.155262   -5583.607464       0.000000       0.000000       0.000000   24880.877177  -31563.424237    1098.939596 
  210000     300.011674   -4655.832518   -5551.004608       0.000000       0.000000       0.000000   24829.414105  -31563.756277    1183.337564 
  220000     302.194106   -4598.105225   -5499.789236       0.000000       0.000000       0.000000   24952.211586  -31565.634357    1113.633535 
  230000     292.940592   -4585.599820   -5459.673282       0.000000       0.000000       0.000000   24995.317215  -31562.572054    1107.581557 
  240000     295.745973   -4654.737498   -5537.181628       0.000000       0.000000       0.000000   24990.721909  -31565.332454    1037.428916 
  250000     295.658511   -4676.495253   -5558.678418       0.000000       0.000000       0.000000   24886.664785  -31563.027934    1117.684731 
  260000     291.518855   -4665.142262   -5534.973556       0.000000       0.000000       0.000000   24855.597865  -31565.429683    1174.858262 
  270000     306.116340   -4597.289121   -5510.676257       0.000000       0.000000       0.000000   24944.633012  -31563.051166    1107.741897 
  280000     304.965871   -4580.570865   -5490.525245       0.000000       0.000000       0.000000   24981.681311  -31559.953974    1087.747417 
  290000     285.684308   -4664.413856   -5516.836081       0.000000       0.000000       0.000000   24966.630049  -31562.701365    1079.235234 
  300000     294.245709   -4559.889195   -5437.856852       0.000000       0.000000       0.000000   25056.956528  -31560.588168    1065.774788 
  310000     299.004339   -4619.158983   -5511.325395       0.000000       0.000000       0.000000   25035.770288  -31561.752147    1014.656463 
  320000     306.664847   -4656.811092   -5571.834859       0.000000       0.000000       0.000000   24844.156566  -31562.156542    1146.165116 
  330000     294.951697   -4623.625900   -5503.700078       0.000000       0.000000       0.000000   24938.775386  -31560.532867    1118.057402 
  340000     286.409142   -4644.975114   -5499.560094       0.000000       0.000000       0.000000   24934.040305  -31560.624296    1127.023897 
  350000     297.538219   -4667.925439   -5555.717257       0.000000       0.000000       0.000000   24840.443311  -31563.821693    1167.661124 
  360000     301.705371   -4597.970992   -5498.196719       0.000000       0.000000       0.000000   24976.496473  -31563.604281    1088.911089 
  370000     310.345989   -4527.872676   -5453.880200       0.000000       0.000000       0.000000   25053.039746  -31562.407827    1055.487881 
  380000     293.930678   -4626.922259   -5503.949931       0.000000       0.000000       0.000000   24966.173280  -31564.116031    1093.992821 
  390000     288.429106   -4589.483473   -5450.095604       0.000000       0.000000       0.000000   25021.162388  -31558.509919    1087.251927 
  400000     284.034528   -4684.680107   -5532.179736       0.000000       0.000000       0.000000   24904.009752  -31560.569109    1124.379621 
  410000     290.507710   -4688.015898   -5554.830149       0.000000       0.000000       0.000000   24866.327276  -31566.017896    1144.860472 
  420000     300.598252   -4580.019539   -5476.941854       0.000000       0.000000       0.000000   25017.434472  -31561.266093    1066.889766 
  430000     299.770659   -4606.024318   -5500.477271       0.000000       0.000000       0.000000   24919.064876  -31561.294605    1141.752458 
  440000     306.676791   -4598.030522   -5513.089928       0.000000       0.000000       0.000000   24915.551978  -31558.380871    1129.738965 
  450000     300.888996   -4607.404993   -5505.194829       0.000000       0.000000       0.000000   25011.113410  -31565.402887    1049.094648 
  460000     297.703933   -4597.598228   -5485.884503       0.000000       0.000000       0.000000   24982.925198  -31560.600429    1091.790728 
  470000     304.367295   -4650.284199   -5558.452551       0.000000       0.000000       0.000000   24863.362225  -31561.296535    1139.481758 
  480000     302.829776   -4643.114014   -5546.694733       0.000000       0.000000       0.000000   24850.541643  -31566.358368    1169.121992 
  490000     296.558116   -4644.288780   -5529.156176       0.000000       0.000000       0.000000   24909.740944  -31562.105878    1123.208757 
  500000     294.589082   -4641.364970   -5520.357181       0.000000       0.000000       0.000000   24972.228787  -31563.113674    1070.527706 
  510000     297.290906   -4615.222013   -5502.275901       0.000000       0.000000       0.000000   25006.456788  -31558.759962    1050.027274 
  520000     302.146443   -4590.369061   -5491.910857       0.000000       0.000000       0.000000   25049.750816  -31564.373727    1022.712055 
  530000     313.340224   -4594.412893   -5529.354591       0.000000       0.000000       0.000000   24953.630964  -31561.417787    1078.432232 
  540000     300.978699   -4618.395263   -5516.452753       0.000000       0.000000       0.000000   24899.805943  -31562.369909    1146.111213 
  550000     295.299242   -4626.080359   -5507.191538       0.000000       0.000000       0.000000   25033.319531  -31561.946418    1021.435348 
  560000     307.533617   -4613.901565   -5531.517561       0.000000       0.000000       0.000000   24903.600023  -31563.110970    1127.993386 
  570000     307.746792   -4641.839333   -5560.091398       0.000000       0.000000       0.000000   24901.749698  -31563.753458    1101.912361 
  580000     299.825424   -4682.230750   -5576.847111       0.000000       0.000000       0.000000   24909.837487  -31569.088982    1082.404384 
  590000     300.936354   -4640.384640   -5538.315781       0.000000       0.000000       0.000000   24904.981306  -31564.050492    1120.753405 
  600000     298.817794   -4678.025255   -5569.635057       0.000000       0.000000       0.000000   24896.700606  -31561.766404    1095.430740 
  610000     293.299900   -4624.792196   -5499.937758       0.000000       0.000000       0.000000   24888.314281  -31561.799841    1173.547802 
  620000     295.236840   -4689.982152   -5570.907137       0.000000       0.000000       0.000000   24878.622148  -31564.358181    1114.828896 
  630000     302.817327   -4609.707162   -5513.250735       0.000000       0.000000       0.000000   24982.745493  -31560.561547    1064.565319 
  640000     294.137085   -4614.499812   -5492.143357       0.000000       0.000000       0.000000   25059.707543  -31562.418202    1010.567302 
  650000     308.719376   -4610.072182   -5531.226235       0.000000       0.000000       0.000000   24988.521781  -31563.542466    1043.794450 
  660000     290.028151   -4636.697908   -5502.081253       0.000000       0.000000       0.000000   24960.132160  -31564.873019    1102.659606 
  670000     301.551676   -4570.166453   -5469.933588       0.000000       0.000000       0.000000   25051.314134  -31566.321919    1045.074197 
  680000     304.148136   -4595.565862   -5503.080292       0.000000       0.000000       0.000000   25010.775504  -31563.650326    1049.794530 
  690000     301.807364   -4597.358988   -5497.889043       0.000000       0.000000       0.000000   25017.708646  -31559.814445    1044.216755 
  700000     297.957062   -4609.760513   -5498.802072       0.000000       0.000000       0.000000   24954.955756  -31562.627658    1108.869831 
  710000     292.734995   -4620.103696   -5493.563698       0.000000       0.000000       0.000000   25013.637439  -31560.889882    1053.688746 
  720000     302.661833   -4628.475471   -5531.555082       0.000000       0.000000       0.000000   24883.048712  -31563.757213    1149.153419 
  730000     293.237110   -4698.111890   -5573.070098       0.000000       0.000000       0.000000   24865.568155  -31560.830540    1122.192288 
  740000     285.900193   -4692.945431   -5546.011814       0.000000       0.000000       0.000000   24897.058381  -31560.792987    1117.722792 
  750000     295.675720   -4659.934150   -5542.168662       0.000000       0.000000       0.000000   24916.683121  -31559.923995    1101.072213 
  760000     301.083568   -4637.793219   -5536.163618       0.000000       0.000000       0.000000   24964.529704  -31564.237722    1063.544400 
  770000     299.984809   -4662.508401   -5557.600333       0.000000       0.000000       0.000000   24933.915437  -31561.228351    1069.712581 
  780000     289.292368   -4648.682352   -5511.870276       0.000000       0.000000       0.000000   25006.275543  -31564.720586    1046.574766 
  790000     295.053212   -4665.860500   -5546.237578       0.000000       0.000000       0.000000   24963.021246  -31564.514235    1055.255412 
  800000     298.864298   -4594.032771   -5485.781331       0.000000       0.000000       0.000000   24986.819522  -31560.298908    1087.698054 
  810000     295.076627   -4599.999753   -5480.446694       0.000000       0.000000       0.000000   24992.337081  -31557.384278    1084.600503 
  820000     307.861862   -4561.743887   -5480.339295       0.000000       0.000000       0.000000   24938.179007  -31563.333994    1144.815692 
  830000     297.530470   -4621.468353   -5509.237051       0.000000       0.000000       0.000000   24960.010005  -31562.639412    1093.392355 
  840000     297.120368   -4654.743895   -5541.288934       0.000000       0.000000       0.000000   24907.817323  -31562.695505    1113.589248 
  850000     310.555679   -4634.470263   -5561.103460       0.000000       0.000000       0.000000   24861.735895  -31563.968578    1141.129223 
  860000     312.724661   -4593.361168   -5526.466154       0.000000       0.000000       0.000000   24910.558144  -31562.344381    1125.320083 
  870000     297.630426   -4615.746824   -5503.813767       0.000000       0.000000       0.000000   25014.957195  -31561.904464    1043.133502 
  880000     302.590465   -4581.585171   -5484.451836       0.000000       0.000000       0.000000   24940.904518  -31561.948305    1136.591950 
  890000     307.460725   -4645.331054   -5562.729554       0.000000       0.000000       0.000000   24756.524877  -31562.290840    1243.036409 
  900000     302.621232   -4599.386182   -5502.344647       0.000000       0.000000       0.000000   24933.955138  -31562.494843    1126.195057 
  910000     283.888785   -4707.482299   -5554.547061       0.000000       0.000000       0.000000   24882.232928  -31557.080035    1120.300046 
  920000     306.382695   -4622.227609   -5536.409494       0.000000       0.000000       0.000000   24959.801010  -31561.220816    1065.010313 
  930000     300.710311   -4639.773678   -5537.030357       0.000000       0.000000       0.000000   24986.867290  -31560.619061    1036.721414 
  940000     300.500253   -4593.135207   -5489.765114       0.000000       0.000000       0.000000   24963.385543  -31558.816995    1105.666338 
  950000     301.978675   -4641.583030   -5542.624240       0.000000       0.000000       0.000000   24868.506151  -31564.744416    1153.614024 
  960000     307.182887   -4561.175307   -5477.744796       0.000000       0.000000       0.000000   24942.281615  -31555.878957    1135.852546 
  970000     292.203623   -4577.570293   -5449.444793       0.000000       0.000000       0.000000   25043.465591  -31560.859160    1067.948776 
  980000     290.694523   -4628.210470   -5495.582130       0.000000       0.000000       0.000000   24992.591335  -31560.257402    1072.083938 
  990000     305.025593   -4614.397954   -5524.530531       0.000000       0.000000       0.000000   24950.798483  -31565.726609    1090.397595 
 1000000     308.600380   -4637.338264   -5558.137257       0.000000       0.000000       0.000000   24969.691521  -31564.970619    1037.141841 
 1010000     303.557459   -4648.166317   -5553.918290       0.000000       0.000000       0.000000   24924.786596  -31563.702178    1084.997293 
 1020000     301.426077   -4568.637163   -5468.029536       0.000000       0.000000       0.000000   25024.512727  -31562.345052    1069.802788 
 1030000     308.119509   -4574.899831   -5494.264007       0.000000       0.000000       0.000000   24984.329763  -31559.384523    1080.790753 
 1040000     300.781136   -4594.522868   -5491.990872       0.000000       0.000000       0.000000   24990.253475  -31562.094961    1079.850613 
 1050000     296.066016   -4686.013109   -5569.412180       0.000000       0.000000       0.000000   24894.048725  -31563.828231    1100.367325 
 1060000     295.381424   -4664.604334   -5545.960727       0.000000       0.000000       0.000000   24940.984109  -31565.124082    1078.179245 
 1070000     292.537134   -4737.848748   -5610.718374       0.000000       0.000000       0.000000   24812.756796  -31562.685572    1139.210402 
 1080000     291.060668   -4585.696962   -5454.161121       0.000000       0.000000       0.000000   25091.619789  -31562.734689    1016.953778 
 1090000     303.672049   -4623.138673   -5529.232556       0.000000       0.000000       0.000000   24915.305819  -31562.422575    1117.884200 
 1100000     293.436010   -4674.713701   -5550.265385       0.000000       0.000000       0.000000   24858.739943  -31566.608079    1157.602751 
 1110000     302.708917   -4572.702936   -5475.923037       0.000000       0.000000       0.000000   25048.045191  -31563.987087    1040.018858 
 1120000     296.192392   -4683.513216   -5567.289369       0.000000       0.000000       0.000000   24928.396727  -31558.720765    1063.034669 
 1130000     290.606084   -4672.213109   -5539.320885       0.000000       0.000000       0.000000   24958.258475  -31559.755966    1062.176606 
 1140000     312.084619   -4567.677913   -5498.873147       0.000000       0.000000       0.000000   24948.529649  -31563.278105    1115.875309 
 1150000     301.398995   -4648.578575   -5547.890143       0.000000       0.000000       0.000000   24852.780768  -31559.988088    1159.317177 
 1160000     294.064047   -4659.385564   -5536.811179       0.000000       0.000000       0.000000   24943.292714  -31566.316014    1086.212121 
 1170000     308.587695   -4544.556815   -5465.317960       0.000000       0.000000       0.000000   25088.683904  -31563.520147    1009.518283 
 1180000     303.992662   -4550.035573   -5457.086098       0.000000       0.000000       0.000000   24979.633620  -31560.959051    1124.239333 
 1190000     304.324351   -4581.971973   -5490.012189       0.000000       0.000000       0.000000   25011.151112  -31562.901039    1061.737738 
 1200000     287.013036   -4619.895513   -5476.282386       0.000000       0.000000       0.000000   25024.756716  -31564.603361    1063.564260 
 1210000     307.532608   -4632.311380   -5549.924364       0.000000       0.000000       0.000000   24905.187263  -31563.786860    1108.675233 
 1220000     303.049484   -4636.014194   -5540.250475       0.000000       0.000000       0.000000   24935.925841  -31564.290222    1088.113906 
 1230000     291.553971   -4641.909562   -5511.845634       0.000000       0.000000       0.000000   24915.968235  -31560.781057    1132.967187 
 1240000     303.259273   -4643.410372   -5548.272619       0.000000       0.000000       0.000000   24923.262956  -31567.931867    1096.396292 
 1250000     286.167097   -4601.918052   -5455.780822       0.000000       0.000000       0.000000   25034.340723  -31560.642240    1070.520696 
 1260000     313.900419   -4578.101284   -5514.714485       0.000000       0.000000       0.000000   24977.925324  -31562.036732    1069.396923 
 1270000     305.863483   -4586.807469   -5499.440134       0.000000       0.000000       0.000000   25008.580306  -31560.762180    1052.741741 
 1280000     311.580175   -4636.737800   -5566.427878       0.000000       0.000000       0.000000   24862.663678  -31561.148003    1132.056446 
 1290000     288.669371   -4670.999445   -5532.328476       0.000000       0.000000       0.000000   24868.495441  -31561.542723    1160.718805 
 1300000     289.255730   -4593.360792   -5456.439397       0.000000       0.000000       0.000000   25118.710809  -31559.745979     984.595773 
 1310000     307.757635   -4521.751761   -5440.036180       0.000000       0.000000       0.000000   25054.054597  -31562.787807    1068.697030 
 1320000     293.052843   -4620.605003   -5495.013398       0.000000       0.000000       0.000000   25069.939813  -31565.816030    1000.862819 
 1330000     300.381797   -4583.125855   -5479.402317       0.000000       0.000000       0.000000   24938.002998  -31562.250852    1144.845537 
 1340000     304.008782   -4654.095634   -5561.194258       0.000000       0.000000       0.000000   24860.839436  -31566.556608    1144.522913 
 1350000     302.222955   -4654.800182   -5556.570273       0.000000       0.000000       0.000000   24917.310137  -31563.990633    1090.110223 
 1360000     304.133442   -4561.755905   -5469.226488       0.000000       0.000000       0.000000   25049.624197  -31560.468218    1041.617533 
 1370000     290.450195   -4624.755979   -5491.398617       0.000000       0.000000       0.000000   24991.898635  -31563.210984    1079.913732 
 1380000     301.414646   -4641.322780   -5540.681048       0.000000       0.000000       0.000000   24933.948020  -31559.186445    1084.557376 
 1390000     298.925453   -4620.497958   -5512.428992       0.000000       0.000000       0.000000   24913.295942  -31561.867284    1136.142350 
 1400000     298.886264   -4662.285584   -5554.099687       0.000000       0.000000       0.000000   24854.753455  -31565.955060    1157.101918 
 1410000     295.446792   -4648.513470   -5530.064907       0.000000       0.000000       0.000000   24963.211884  -31565.791377    1072.514586 
 1420000     302.986929   -4633.498499   -5537.548127       0.000000       0.000000       0.000000   24878.124314  -31562.845626    1147.173184 
 1430000     298.253410   -4598.722947   -5488.648747       0.000000       0.000000       0.000000   24996.054953  -31561.661267    1076.957566 
 1440000     298.422283   -4682.721980   -5573.151659       0.000000       0.000000       0.000000   24963.544085  -31562.411787    1025.716043 
 1450000     308.531380   -4523.236794   -5443.829906       0.000000       0.000000       0.000000   25052.755031  -31559.892733    1063.307795 
 1460000     284.289468   -4668.190097   -5516.450412       0.000000       0.000000       0.000000   24987.435801  -31562.534423    1058.648210 
 1470000     294.970908   -4637.889560   -5518.021060       0.000000       0.000000       0.000000   24946.296403  -31563.162164    1098.844701 
 1480000     291.645731   -4586.474868   -5456.684734       0.000000       0.000000       0.000000   25058.144822  -31562.687720    1047.858164 
 1490000     307.405941   -4589.723676   -5506.958712       0.000000       0.000000       0.000000   24953.417516  -31564.746903    1104.370675 
 1500000     297.450953   -4644.006739   -5531.538174       0.000000       0.000000       0.000000   24965.313936  -31562.750781    1065.898672 
 1510000     285.345316   -4656.379569   -5507.790313       0.000000       0.000000       0.000000   24952.822662  -31564.165280    1103.552304 
 1520000     286.315377   -4721.667703   -5575.972907       0.000000       0.000000       0.000000   24885.760087  -31559.817703    1098.084709 
 1530000     300.058945   -4640.655733   -5535.968872       0.000000       0.000000       0.000000   24993.617612  -31562.717696    1033.131211 
 1540000     303.671099   -4606.082897   -5512.173945       0.000000       0.000000       0.000000   24886.591144  -31563.442435    1164.677346 
 1550000     313.985211   -4600.833771   -5537.699975       0.000000       0.000000       0.000000   24918.701759  -31559.382346    1102.980613 
 1560000     308.672311   -4650.271015   -5571.284635       0.000000       0.000000       0.000000   24863.082184  -31568.211351    1133.844532 
 1570000     308.409084   -4558.152167   -5478.380374       0.000000       0.000000       0.000000   25029.761517  -31557.131432    1048.989540 
 1580000     276.329713   -4782.993236   -5607.503310       0.000000       0.000000       0.000000   24875.912323  -31565.292574    1081.876941 
 1590000     307.044781   -4681.774845   -5597.932258       0.000000       0.000000       0.000000   24887.139680  -31565.563099    1080.491162 
 1600000     327.793990   -4532.312854   -5510.381565       0.000000       0.000000       0.000000   25009.441281  -31563.000804    1043.177959 
 1610000     300.065243   -4609.329144   -5504.661072       0.000000       0.000000       0.000000   24998.569443  -31563.383208    1060.152693 
 1620000     291.466516   -4640.098418   -5509.773546       0.000000       0.000000       0.000000   24995.920505  -31562.621280    1056.927228 
 1630000     313.333900   -4638.906615   -5573.829441       0.000000       0.000000       0.000000   24913.868496  -31564.455870    1076.757934 
 1640000     303.031793   -4581.103387   -5485.286881       0.000000       0.000000       0.000000   25014.372069  -31563.571208    1063.912257 
 1650000     300.964366   -4596.253065   -5494.267790       0.000000       0.000000       0.000000   24926.185810  -31564.249508    1143.795908 
 1660000     296.813325   -4601.148373   -5486.777258       0.000000       0.000000       0.000000   24930.319001  -31561.432145    1144.335886 
 1670000     297.242721   -4582.672013   -5469.582127       0.000000       0.000000       0.000000   25086.213759  -31560.266506    1004.470620 
 1680000     309.385900   -4632.088305   -5555.231125       0.000000       0.000000       0.000000   24849.774681  -31558.281870    1153.276064 
 1690000     288.796349   -4725.667169   -5587.375076       0.000000       0.000000       0.000000   24866.728985  -31563.306690    1109.202629 
 1700000     303.091032   -4601.930865   -5506.291116       0.000000       0.000000       0.000000   25035.100921  -31561.332049    1019.940012 
 1710000     299.932058   -4618.754623   -5513.689156       0.000000       0.000000       0.000000   24966.250520  -31559.362220    1079.422545 
 1720000     298.590770   -4619.803864   -5510.736274       0.000000       0.000000       0.000000   25023.643516  -31562.704563    1028.324773 
 1730000     306.679497   -4636.675771   -5551.743251       0.000000       0.000000       0.000000   24877.647579  -31565.145088    1135.754259 
 1740000     305.647645   -4652.726556   -5564.715204       0.000000       0.000000       0.000000   24856.599041  -31565.320501    1144.006257 
 1750000     302.959800   -4590.801216   -5494.769899       0.000000       0.000000       0.000000   24988.934290  -31558.563566    1074.859377 
 1760000     304.579614   -4619.940440   -5528.742309       0.000000       0.000000       0.000000   24943.266012  -31561.287734    1089.279413 
 1770000     294.535190   -4682.185076   -5561.016485       0.000000       0.000000       0.000000   24938.323303  -31561.945181    1062.605394 
 1780000     303.713480   -4655.206018   -5561.423524       0.000000       0.000000       0.000000   24941.203449  -31566.847127    1064.220154 
 1790000     308.511420   -4601.065152   -5521.598708       0.000000       0.000000       0.000000   24951.077553  -31560.609587    1087.933326 
 1800000     290.817852   -4622.171741   -5489.911390       0.000000       0.000000       0.000000   24952.279642  -31559.546117    1117.355085 
 1810000     298.675151   -4620.471556   -5511.655740       0.000000       0.000000       0.000000   24934.651406  -31563.112513    1116.805366 
 1820000     288.029500   -4662.868059   -5522.287850       0.000000       0.000000       0.000000   24945.940514  -31565.116990    1096.888625 
 1830000     309.405913   -4619.277519   -5542.480053       0.000000       0.000000       0.000000   24913.598726  -31561.343955    1105.265176 
 1840000     314.557108   -4563.329718   -5501.902342       0.000000       0.000000       0.000000   24985.610387  -31561.873430    1074.360701 
 1850000     292.957957   -4669.852848   -5543.978121       0.000000       0.000000       0.000000   24899.080347  -31565.328820    1122.270352 
 1860000     310.948936   -4529.619852   -5457.426444       0.000000       0.000000       0.000000   25018.729476  -31557.179618    1081.023698 
 1870000     291.012545   -4626.262243   -5494.582816       0.000000       0.000000       0.000000   25034.833206  -31560.905268    1031.489246 
 1880000     305.891674   -4607.248343   -5519.965125       0.000000       0.000000       0.000000   24928.323828  -31559.407934    1111.118981 
 1890000     299.780926   -4658.191167   -5552.674756       0.000000       0.000000       0.000000   24937.097859  -31563.951948    1074.179333 
 1900000     299.990894   -4653.870644   -5548.980731       0.000000       0.000000       0.000000   24916.508816  -31563.181617    1097.692071 
 1910000     303.580946   -4668.757689   -5574.579741       0.000000       0.000000       0.000000   24844.011000  -31563.967660    1145.376919 
 1920000     304.099259   -4672.087150   -5579.455740       0.000000       0.000000       0.000000   24872.919869  -31561.612824    1109.237215 
 1930000     304.790188   -4671.533674   -5580.963851       0.000000       0.000000       0.000000   24831.632526  -31562.442472    1149.846096 
 1940000     300.992838   -4656.113041   -5554.212720       0.000000       0.000000       0.000000   24888.463928  -31557.769316    1115.092668 
 1950000     294.620916   -4701.602402   -5580.689597       0.000000       0.000000       0.000000   24835.971636  -31561.454537    1144.793303 
 1960000     308.708569   -4558.426156   -5479.547962       0.000000       0.000000       0.000000   25036.111991  -31562.170608    1046.510654 
 1970000     291.913676   -4677.050254   -5548.059614       0.000000       0.000000       0.000000   24929.995748  -31559.874206    1081.818844 
 1980000     288.669816   -4684.293948   -5545.624306       0.000000       0.000000       0.000000   24975.072306  -31560.809594    1040.112983 
 1990000     309.715839   -4576.641615   -5500.768903       0.000000       0.000000       0.000000   24964.520187  -31564.482225    1099.193134 
 2000000     294.184675   -4684.460768   -5562.246312       0.000000       0.000000       0.000000   24911.359263  -31565.853203    1092.247628 
 2010000     301.211958   -4596.534865   -5495.288351       0.000000       0.000000       0.000000   24967.752386  -31559.602299    1096.561561 
 2020000     294.830424   -4693.853799   -5573.566124       0.000000       0.000000       0.000000   24854.380738  -31561.523528    1133.576665 
 2030000     296.108451   -4608.910165   -5492.435855       0.000000       0.000000       0.000000   24996.294543  -31560.616159    1071.885761 
 2040000     291.594761   -4638.299110   -5508.356893       0.000000       0.000000       0.000000   24991.571039  -31560.864920    1060.936987 
 2050000     302.550370   -4568.805978   -5471.553008       0.000000       0.000000       0.000000   25008.753923  -31564.112159    1083.805228 
 2060000     286.188135   -4633.914691   -5487.840233       0.000000       0.000000       0.000000   24974.478318  -31563.601957    1101.283405 
 2070000     303.543043   -4586.611120   -5492.320078       0.000000       0.000000       0.000000   25031.458171  -31560.465530    1036.687281 
 2080000     302.298129   -4593.287572   -5495.281967       0.000000       0.000000       0.000000   24935.152232  -31563.871808    1133.437609 
 2090000     299.038499   -4629.453124   -5521.721465       0.000000       0.000000       0.000000   24922.578708  -31561.226805    1116.926632 
 2100000     294.336249   -4683.628064   -5561.865872       0.000000       0.000000       0.000000   24882.090533  -31562.836995    1118.880590 
 2110000     298.766270   -4638.749952   -5530.206019       0.000000       0.000000       0.000000   24957.335116  -31562.957043    1075.415909 
 2120000     292.813456   -4618.423187   -5492.117300       0.000000       0.000000       0.000000   24968.364661  -31565.280965    1104.799004 
 2130000     300.676288   -4632.341065   -5529.496224       0.000000       0.000000       0.000000   24969.210252  -31563.248870    1064.542393 
 2140000     304.335903   -4624.253284   -5532.327971       0.000000       0.000000       0.000000   24969.389893  -31567.414626    1065.696763 
 2150000     299.866069   -4601.329393   -5496.067028       0.000000       0.000000       0.000000   24959.196175  -31565.902308    1110.639105 
 2160000     284.731598   -4590.467831   -5440.047370       0.000000       0.000000       0.000000   24998.616803  -31560.806070    1122.141897 
 2170000     310.994627   -4577.038904   -5504.981830       0.000000       0.000000       0.000000   25012.511409  -31560.674786    1043.181546 
 2180000     296.698236   -4618.243000   -5503.528484       0.000000       0.000000       0.000000   24961.710244  -31556.072159    1090.833431 
 2190000     295.305939   -4712.378289   -5593.509449       0.000000       0.000000       0.000000   24785.719639  -31558.691977    1179.462889 
 2200000     292.650309   -4680.084739   -5553.292055       0.000000       0.000000       0.000000   24901.648563  -31563.164148    1108.223530 
 2210000     304.702991   -4596.427154   -5505.597155       0.000000       0.000000       0.000000   24980.493050  -31559.783863    1073.693658 
 2220000     301.623973   -4665.176751   -5565.159604       0.000000       0.000000       0.000000   24897.620419  -31565.806910    1103.026887 
 2230000     301.255060   -4586.642940   -5485.525033       0.000000       0.000000       0.000000   25065.752450  -31559.796006    1008.518523 
 2240000     292.879082   -4662.907743   -5536.797671       0.000000       0.000000       0.000000   24916.638621  -31565.808446    1112.372154 
 2250000     298.299021   -4586.793099   -5476.854992       0.000000       0.000000       0.000000   24969.240028  -31562.229011    1116.133991 
 2260000     299.403390   -4530.322016   -5423.679114       0.000000       0.000000       0.000000   25150.987059  -31564.026034     989.359861 
 2270000     309.110315   -4645.350133   -5567.670666       0.000000       0.000000       0.000000   24904.858163  -31565.166101    1092.637272 
 2280000     308.391394   -4586.558814   -5506.734237       0.000000       0.000000       0.000000   24953.255304  -31562.381681    1102.392140 
 2290000     307.524501   -4641.182254   -5558.771049       0.000000       0.000000       0.000000   24913.364218  -31560.444763    1088.309496 
 2300000     299.859921   -4663.604124   -5558.323417       0.000000       0.000000       0.000000   24865.901685  -31559.023121    1134.798019 
 2310000     303.592869   -4619.683686   -5525.541314       0.000000       0.000000       0.000000   24910.431483  -31564.444853    1128.472056 
 2320000     301.371285   -4597.391296   -5496.620183       0.000000       0.000000       0.000000   25007.980668  -31561.506645    1056.905793 
 2330000     317.387556   -4532.859699   -5479.877787       0.000000       0.000000       0.000000   24946.283961  -31564.656760    1138.495012 
 2340000     295.512114   -4636.731141   -5518.477486       0.000000       0.000000       0.000000   24982.103985  -31568.641119    1068.059648 
 2350000     290.779775   -4691.948270   -5559.574306       0.000000       0.000000       0.000000   24929.098628  -31562.461086    1073.788152 
 2360000     290.780519   -4621.630094   -5489.258348       0.000000       0.000000       0.000000   25002.236246  -31562.845260    1071.350666 
 2370000     296.815591   -4698.144154   -5583.779801       0.000000       0.000000       0.000000   24934.350914  -31561.051864    1042.921149 
 2380000     302.893527   -4558.113824   -5461.884763       0.000000       0.000000       0.000000   25017.999989  -31557.819034    1077.934281 
 2390000     310.154489   -4571.473921   -5496.910050       0.000000       0.000000       0.000000   24957.431070  -31559.193978    1104.852858 
 2400000     301.699253   -4640.503931   -5540.711406       0.000000       0.000000       0.000000   24900.223782  -31560.521333    1119.586145 
 2410000     301.045195   -4686.265726   -5584.521626       0.000000       0.000000       0.000000   24876.701853  -31566.692401    1105.468922 
 2420000     302.650797   -4661.411767   -5564.458450       0.000000       0.000000       0.000000   24905.910556  -31562.404392    1092.035386 
 2430000     311.153379   -4595.111225   -5523.527834       0.000000       0.000000       0.000000   24975.904798  -31564.987082    1065.554449 
 2440000     309.359627   -4612.769082   -5535.833508       0.000000       0.000000       0.000000   24916.816398  -31565.312213    1112.662306 
 2450000     285.863539   -4686.022492   -5538.979507       0.000000       0.000000       0.000000   24942.006097  -31565.950412    1084.964808 
 2460000     305.870166   -4574.924725   -5487.577331       0.000000       0.000000       0.000000   24999.309810  -31565.440967    1078.553826 
 2470000     303.643839   -4627.572287   -5533.581999       0.000000       0.000000       0.000000   24920.286612  -31563.386684    1109.518073 
 2480000     308.532905   -4602.576398   -5523.174061       0.000000       0.000000       0.000000   24976.949420  -31566.111256    1065.987775 
 2490000     311.370495   -4558.355705   -5487.420143       0.000000       0.000000       0.000000   25030.067161  -31561.714066    1044.226762 
 2500000     299.786878   -4634.441278   -5528.942626       0.000000       0.000000       0.000000   24867.748394  -31559.853027    1163.162007 
 2510000     300.861275   -4625.406023   -5523.113146       0.000000       0.000000       0.000000   24872.848602  -31562.095102    1166.133354 
 2520000     295.523393   -4648.592856   -5530.372855       0.000000       0.000000       0.000000   24849.341059  -31559.291554    1179.577641 
 2530000     305.257452   -4633.631363   -5544.455757       0.000000       0.000000       0.000000   24984.632717  -31564.080830    1034.992355 
 2540000     289.922136   -4674.474402   -5539.541421       0.000000       0.000000       0.000000   25033.074305  -31564.355241     991.739515 
 2550000     308.994556   -4527.206698   -5449.181831       0.000000       0.000000       0.000000   25100.227907  -31566.301982    1016.892243 
 2560000     293.809756   -4648.228100   -5524.894963       0.000000       0.000000       0.000000   24934.161591  -31559.823744    1100.767190 
 2570000     305.598483   -4598.114426   -5509.956387       0.000000       0.000000       0.000000   24985.655179  -31563.807853    1068.196286 
 2580000     300.506336   -4636.826871   -5533.474930       0.000000       0.000000       0.000000   24924.732733  -31565.804079    1107.596416 
 2590000     300.902409   -4610.345249   -5508.175108       0.000000       0.000000       0.000000   24928.768672  -31563.063020    1126.119240 
 2600000     297.321275   -4608.891410   -5496.035911       0.000000       0.000000       0.000000   25021.469412  -31563.615832    1046.110509 
 2610000     298.396195   -4594.517550   -5484.869387       0.000000       0.000000       0.000000   24995.739628  -31562.108053    1081.499037 
 2620000     300.293644   -4600.583443   -5496.596875       0.000000       0.000000       0.000000   24983.461507  -31560.488299    1080.429917 
 2630000     320.420912   -4555.955980   -5512.024968       0.000000       0.000000       0.000000   24972.002508  -31561.896819    1077.869343 
 2640000     294.483441   -4640.768582   -5519.445580       0.000000       0.000000       0.000000   24965.156152  -31563.353538    1078.751805 
 2650000     291.768105   -4645.891651   -5516.466657       0.000000       0.000000       0.000000   24960.393419  -31564.871669    1088.011593 
 2660000     301.820559   -4617.591155   -5518.160580       0.000000       0.000000       0.000000   24974.690202  -31560.964562    1068.113779 
 2670000     300.214409   -4638.352786   -5534.129795       0.000000       0.000000       0.000000   24946.393473  -31563.475264    1082.951996 
 2680000     305.098951   -4665.020505   -5575.371967       0.000000       0.000000       0.000000   24906.959464  -31564.069059    1081.737628 
 2690000     299.569406   -4599.473632   -5493.326088       0.000000       0.000000       0.000000   24986.563837  -31564.963226    1085.073301 
 2700000     309.182906   -4636.542351   -5559.079480       0.000000       0.000000       0.000000   24808.096297  -31563.377847    1196.202069 
 2710000     299.471039   -4646.971959   -5540.530907       0.000000       0.000000       0.000000   24968.284207  -31565.687144    1056.872029 
 2720000     292.564693   -4658.212567   -5531.164425       0.000000       0.000000       0.000000   24933.272323  -31562.436828    1098.000079 
 2730000     293.705179   -4544.488060   -5420.842888       0.000000       0.000000       0.000000   25132.296372  -31564.703645    1011.564386 
 2740000     304.020632   -4573.721359   -5480.855344       0.000000       0.000000       0.000000   25008.538440  -31561.759858    1072.366075 
 2750000     290.773481   -4686.428469   -5554.035723       0.000000       0.000000       0.000000   24917.631311  -31567.520339    1095.853305 
 2760000     296.258979   -4666.976151   -5550.950983       0.000000       0.000000       0.000000   24935.072275  -31567.739555    1081.716297 
 2770000     299.606164   -4622.802023   -5516.764155       0.000000       0.000000       0.000000   25013.299242  -31561.396797    1031.333400 
 2780000     294.060228   -4653.817727   -5531.231947       0.000000       0.000000       0.000000   24929.765379  -31564.571661    1103.574335 
 2790000     310.750479   -4532.574677   -5459.789115       0.000000       0.000000       0.000000   25100.691200  -31561.870736    1001.390420 
 2800000     289.473501   -4661.311504   -5525.039889       0.000000       0.000000       0.000000   24990.866153  -31561.390678    1045.484635 
 2810000     288.133694   -4660.208841   -5519.939525       0.000000       0.000000       0.000000   24950.273513  -31562.397388    1092.184350 
 2820000     310.688006   -4555.652642   -5482.680675       0.000000       0.000000       0.000000   24956.099880  -31560.558259    1121.777704 
 2830000     302.883547   -4635.735530   -5539.476688       0.000000       0.000000       0.000000   24948.548499  -31562.394176    1074.368989 
 2840000     312.031640   -4575.496433   -5506.533587       0.000000       0.000000       0.000000   24986.610689  -31559.505828    1066.361552 
 2850000     288.663387   -4665.396172   -5526.707349       0.000000       0.000000       0.000000   24909.068984  -31565.431167    1129.654835 
 2860000     296.901893   -4634.661838   -5520.554992       0.000000       0.000000       0.000000   24961.701705  -31558.390046    1076.133349 
 2870000     295.122089   -4671.479217   -5552.061809       0.000000       0.000000       0.000000   24929.097846  -31565.729208    1084.569554 
 2880000     292.802773   -4663.236638   -5536.898875       0.000000       0.000000       0.000000   24932.699600  -31565.202080    1095.603604 
 2890000     290.009676   -4696.820277   -5562.148498       0.000000       0.000000       0.000000   24835.129499  -31565.390159    1168.112162 
 2900000     302.213993   -4622.754563   -5524.497914       0.000000       0.000000       0.000000   24918.769833  -31563.258714    1119.990967 
 2910000     308.160129   -4613.833384   -5533.318761       0.000000       0.000000       0.000000   24943.135351  -31562.785512    1086.331400 
 2920000     300.107044   -4625.942603   -5521.399259       0.000000       0.000000       0.000000   25003.768322  -31563.605432    1038.437850 
 2930000     309.485707   -4646.102160   -5569.542783       0.000000       0.000000       0.000000   24942.058092  -31561.977805    1050.376931 
 2940000     296.556883   -4651.365865   -5536.229583       0.000000       0.000000       0.000000   24921.293186  -31561.126348    1103.603579 
 2950000     300.790977   -4600.876652   -5498.374020       0.000000       0.000000       0.000000   24932.281454  -31562.012212    1131.356739 
 2960000     291.850316   -4632.395564   -5503.215870       0.000000       0.000000       0.000000   24938.149981  -31559.921167    1118.555317 
 2970000     294.829191   -4632.748940   -5512.457587       0.000000       0.000000       0.000000   24933.216387  -31565.493056    1119.819082 
 2980000     289.390425   -4698.317159   -5561.797663       0.000000       0.000000       0.000000   24800.331026  -31561.633112    1199.504422 
 2990000     297.769550   -4632.880658   -5521.362719       0.000000       0.000000       0.000000   24981.663345  -31563.995034    1060.968970 
 3000000     297.576001   -4621.156599   -5509.061150       0.000000       0.000000       0.000000   24935.529529  -31565.584133    1120.993455 
 3010000     291.539036   -4725.716180   -5595.607691       0.000000       0.000000       0.000000   24830.254401  -31562.453087    1136.590995 
 3020000     304.560913   -4616.327216   -5525.073284       0.000000       0.000000       0.000000   24849.350429  -31566.635693    1192.211979 
 3030000     306.188872   -4648.737092   -5562.340651       0.000000       0.000000       0.000000   24875.718813  -31562.130173    1124.070709 
 3040000     296.727424   -4678.243784   -5563.616361       0.000000       0.000000       0.000000   24904.548536  -31557.665461    1089.500564 
 3050000     297.921470   -4602.052169   -5490.987527       0.000000       0.000000       0.000000   25044.100175  -31561.106778    1026.019076 
 3060000     304.350545   -4630.521253   -5538.639626       0.000000       0.000000       0.000000   24900.954409  -31560.788099    1121.194064 
 3070000     292.466878   -4722.611945   -5595.271944       0.000000       0.000000       0.000000   24793.842153  -31562.001314    1172.887217 
 3080000     300.138912   -4630.083935   -5525.635677       0.000000       0.000000       0.000000   24891.741975  -31563.471939    1146.094286 
 3090000     313.784997   -4573.344865   -5509.613669       0.000000       0.000000       0.000000   24879.021447  -31559.772195    1171.137080 
 3100000     306.713065   -4632.168550   -5547.336191       0.000000       0.000000       0.000000   24958.761891  -31562.006110    1055.908028 
 3110000     296.381989   -4669.287893   -5553.629762       0.000000       0.000000       0.000000   24905.207544  -31560.819287    1101.981981 
 3120000     304.533051   -4592.906825   -5501.569760       0.000000       0.000000       0.000000   24926.349675  -31563.353391    1135.433957 
 3130000     301.220291   -4636.943530   -5535.721880       0.000000       0.000000       0.000000   24983.257129  -31561.154718    1042.175709 
 3140000     306.841375   -4612.425845   -5527.976336       0.000000       0.000000       0.000000   24959.774493  -31560.607734    1072.856905 
 3150000     310.110698   -4584.278556   -5509.584021       0.000000       0.000000       0.000000   24957.734977  -31561.658967    1094.339969 
 3160000     305.748626   -4608.746548   -5521.036504       0.000000       0.000000       0.000000   24903.924382  -31559.879874    1134.918988 
 3170000     308.226929   -4560.702381   -5480.387075       0.000000       0.000000       0.000000   24998.465864  -31564.841081    1085.988142 
 3180000     289.754446   -4683.784563   -5548.351230       0.000000       0.000000       0.000000   24899.709631  -31560.496831    1112.435970 
 3190000     298.793111   -4585.829440   -5477.365592       0.000000       0.000000       0.000000   24998.249235  -31564.611718    1088.996891 
 3200000     297.539376   -4580.338877   -5468.134148       0.000000       0.000000       0.000000   25064.857198  -31561.055813    1028.064467 
 3210000     297.418775   -4612.221300   -5499.656722       0.000000       0.000000       0.000000   24952.013819  -31562.182221    1110.511680 
 3220000     302.207443   -4626.990159   -5528.713966       0.000000       0.000000       0.000000   24948.577234  -31563.619222    1086.328022 
 3230000     309.213780   -4636.630661   -5559.259913       0.000000       0.000000       0.000000   24922.952177  -31565.554378    1083.342288 
 3240000     301.846284   -4676.079025   -5576.725210       0.000000       0.000000       0.000000   24909.372652  -31558.903900    1072.806037 
 3250000     292.762677   -4609.661685   -5483.204284       0.000000       0.000000       0.000000   25015.885013  -31563.445110    1064.355814 
 3260000     315.256648   -4569.100454   -5509.760358       0.000000       0.000000       0.000000   24974.920100  -31563.601396    1078.920939 
 3270000     280.082685   -4689.035154   -5524.743310       0.000000       0.000000       0.000000   24917.965422  -31563.357721    1120.648989 
 3280000     300.514188   -4616.984842   -5513.656330       0.000000       0.000000       0.000000   24933.125660  -31561.999778    1115.217788 
 3290000     291.473180   -4629.713345   -5499.408356       0.000000       0.000000       0.000000   24982.447708  -31563.132435    1081.276371 
 3300000     297.813848   -4610.332803   -5498.947041       0.000000       0.000000       0.000000   25013.671120  -31562.205536    1049.587375 
 3310000     296.462049   -4641.404188   -5525.984941       0.000000       0.000000       0.000000   24997.237612  -31565.573542    1042.350988 
 3320000     297.763792   -4678.320749   -5566.785630       0.000000       0.000000       0.000000   24850.982036  -31564.426998    1146.659331 
 3330000     305.933809   -4594.199424   -5507.041928       0.000000       0.000000       0.000000   24994.460128  -31566.277140    1064.775084 
 3340000     297.906626   -4624.230839   -5513.121906       0.000000       0.000000       0.000000   24928.723579  -31561.158589    1119.313104 
 3350000     299.816717   -4631.381305   -5525.971684       0.000000       0.000000       0.000000   24965.304092  -31565.368038    1074.092261 
 3360000     293.789547   -4594.699854   -5471.306421       0.000000       0.000000       0.000000   25065.203435  -31560.562522    1024.052666 
 3370000     296.340643   -4655.476157   -5539.694658       0.000000       0.000000       0.000000   24976.832552  -31562.422784    1045.895574 
 3380000     302.031803   -4611.853041   -5513.052774       0.000000       0.000000       0.000000   24988.153387  -31563.348869    1062.142708 
 3390000     310.218783   -4609.491613   -5535.119584       0.000000       0.000000       0.000000   24939.534546  -31561.898949    1087.244819 
 3400000     292.750282   -4644.623247   -5518.128863       0.000000       0.000000       0.000000   24940.198856  -31560.565073    1102.237354 
 3410000     309.592894   -4551.066590   -5474.827039       0.000000       0.000000       0.000000   25047.834069  -31563.867875    1041.206768 
 3420000     311.102322   -4595.058117   -5523.322382       0.000000       0.000000       0.000000   25002.640043  -31560.084234    1034.121808 
 3430000     290.463123   -4675.423810   -5542.105021       0.000000       0.000000       0.000000   24973.684256  -31561.537057    1045.747780 
 3440000     290.436930   -4620.443598   -5487.046654       0.000000       0.000000       0.000000   24952.413382  -31564.239874    1124.779838 
 3450000     300.339721   -4680.042129   -5576.193042       0.000000       0.000000       0.000000   24836.512814  -31560.169382    1147.463527 
 3460000     302.196301   -4607.191202   -5508.881764       0.000000       0.000000       0.000000   24976.866746  -31559.426085    1073.677575 
 3470000     293.994811   -4605.887973   -5483.107002       0.000000       0.000000       0.000000   25011.556121  -31560.147650    1065.484527 
 3480000     302.248174   -4577.751036   -5479.596377       0.000000       0.000000       0.000000   25024.143876  -31562.362356    1058.622104 
 3490000     311.211612   -4561.268127   -5489.858490       0.000000       0.000000       0.000000   25030.195210  -31561.889808    1041.836108 
 3500000     285.934476   -4650.478738   -5503.647413       0.000000       0.000000       0.000000   24980.600448  -31558.225956    1073.978095 
 3510000     296.903990   -4653.161722   -5539.061133       0.000000       0.000000       0.000000   24892.576056  -31561.632964    1129.995775 
 3520000     286.905221   -4644.813644   -5500.878822       0.000000       0.000000       0.000000   25024.687724  -31565.930811    1040.364265 
 3530000     295.410117   -4626.038067   -5507.480073       0.000000       0.000000       0.000000   24958.354875  -31558.646737    1092.811788 
 3540000     302.942596   -4621.663344   -5525.580693       0.000000       0.000000       0.000000   24963.751711  -31564.658385    1075.325980 
 3550000     301.428794   -4619.485780   -5518.886260       0.000000       0.000000       0.000000   24959.460074  -31564.531979    1086.185645 
 3560000     289.679385   -4614.359287   -5478.701989       0.000000       0.000000       0.000000   25090.978066  -31563.029767     993.349712 
 3570000     313.708469   -4570.323355   -5506.363818       0.000000       0.000000       0.000000   24971.767866  -31561.207889    1083.076205 
 3580000     303.721364   -4588.821943   -5495.062971       0.000000       0.000000       0.000000   25058.322721  -31564.858722    1011.473029 
 3590000     310.597154   -4546.921416   -5473.678365       0.000000       0.000000       0.000000   25023.769576  -31561.436509    1063.988568 
 3600000     302.745671   -4624.541177   -5527.870943       0.000000       0.000000       0.000000   24970.063434  -31563.536958    1065.602581 
 3610000     303.726936   -4584.221042   -5490.478698       0.000000       0.000000       0.000000   24957.751212  -31557.999196    1109.769286 
 3620000     301.364400   -4602.590405   -5501.798748       0.000000       0.000000       0.000000   25044.769384  -31566.167876    1019.599744 
 3630000     304.235316   -4587.106447   -5494.881002       0.000000       0.000000       0.000000   25022.465602  -31561.071552    1043.724948 
 3640000     310.815738   -4580.989003   -5508.398163       0.000000       0.000000       0.000000   24866.912019  -31558.023088    1182.712906 
 3650000     292.013857   -4667.023969   -5538.332246       0.000000       0.000000       0.000000   24879.036199  -31563.387171    1146.018726 
 3660000     300.067209   -4697.977201   -5593.314996       0.000000       0.000000       0.000000   24867.241568  -31559.810354    1099.253790 
 3670000     291.917831   -4635.057384   -5506.079140       0.000000       0.000000       0.000000   24958.194165  -31560.730162    1096.456858 
 3680000     280.179719   -4708.821391   -5544.819076       0.000000       0.000000       0.000000   24925.715613  -31564.621442    1094.086753 
 3690000     291.934637   -4674.527472   -5545.599373       0.000000       0.000000       0.000000   24914.413502  -31561.226589    1101.213714 
 3700000     317.883930   -4599.958175   -5548.457339       0.000000       0.000000       0.000000   24945.220989  -31565.399371    1071.721042 
 3710000     301.635188   -4685.120452   -5585.136768       0.000000       0.000000       0.000000   24842.752691  -31562.147226    1134.257768 
 3720000     291.323088   -4564.402704   -5433.649872       0.000000       0.000000       0.000000   25028.820672  -31560.311518    1097.840974 
 3730000     301.056624   -4595.153757   -5493.443760       0.000000       0.000000       0.000000   25041.496018  -31566.222525    1031.282747 
 3740000     301.452568   -4613.245451   -5512.716868       0.000000       0.000000       0.000000   24929.979528  -31554.651230    1111.954834 
 3750000     303.493934   -4603.553670   -5509.116096       0.000000       0.000000       0.000000   24983.707805  -31563.117197    1070.293296 
 3760000     311.286557   -4572.568763   -5501.382747       0.000000       0.000000       0.000000   24986.987973  -31563.568433    1075.197713 
 3770000     291.532010   -4635.886715   -5505.757262       0.000000       0.000000       0.000000   24974.525646  -31563.585835    1083.302926 
 3780000     318.074873   -4608.291036   -5557.359935       0.000000       0.000000       0.000000   24894.871365  -31563.909063    1111.677763 
 3790000     309.534351   -4578.082928   -5501.668696       0.000000       0.000000       0.000000   24993.101054  -31560.856792    1066.087041 
 3800000     312.059480   -4540.656795   -5471.777020       0.000000       0.000000       0.000000   25011.953060  -31562.262388    1078.532308 
 3810000     307.417125   -4622.198779   -5539.467186       0.000000       0.000000       0.000000   25004.775976  -31564.798917    1020.555755 
 3820000     300.466788   -4651.498981   -5548.029035       0.000000       0.000000       0.000000   24940.198176  -31563.757485    1075.530274 
 3830000     289.715170   -4701.161125   -5565.610603       0.000000       0.000000       0.000000   24935.122783  -31562.280515    1061.547130 
 3840000     293.714708   -4628.558240   -5504.941502       0.000000       0.000000       0.000000   24900.715542  -31561.140739    1155.483696 
 3850000     307.460871   -4559.002194   -5476.401129       0.000000       0.000000       0.000000   25021.439967  -31563.449452    1065.608356 
 3860000     294.912446   -4593.686951   -5473.644013       0.000000       0.000000       0.000000   24964.384499  -31559.782429    1121.753917 
 3870000     308.281591   -4548.919274   -5468.767069       0.000000       0.000000       0.000000   25080.534844  -31558.810233    1009.508321 
 3880000     290.727289   -4642.243361   -5509.712789       0.000000       0.000000       0.000000   24921.339533  -31562.949307    1131.896985 
 3890000     299.071468   -4676.688372   -5569.055086       0.000000       0.000000       0.000000   24863.978903  -31565.641575    1132.607585 
 3900000     288.975176   -4604.809705   -5467.051194       0.000000       0.000000       0.000000   25024.873233  -31561.861768    1069.937341 
 3910000     294.019297   -4657.029507   -5534.321596       0.000000       0.000000       0.000000   24955.428015  -31562.814443    1073.064831 
 3920000     304.749389   -4576.844789   -5486.153231       0.000000       0.000000       0.000000   24970.946555  -31562.978338    1105.878552 
 3930000     311.194067   -4655.619276   -5584.157288       0.000000       0.000000       0.000000   24851.206413  -31567.907317    1132.543616 
 3940000     297.489210   -4589.342608   -5476.988194       0.000000       0.000000       0.000000   25071.646004  -31563.358308    1014.724110 
 3950000     310.054950   -4554.924267   -5480.063393       0.000000       0.000000       0.000000   24999.337874  -31558.985477    1079.584209 
 3960000     297.836550   -4661.252024   -5549.934000       0.000000       0.000000       0.000000   24896.213409  -31559.395299    1113.247890 
 3970000     303.591791   -4616.116843   -5521.971253       0.000000       0.000000       0.000000   24977.613260  -31561.362696    1061.778183 
 3980000     318.902204   -4546.916638   -5498.454119       0.000000       0.000000       0.000000   24940.410966  -31563.082629    1124.217543 
 3990000     301.386906   -4622.008568   -5521.284063       0.000000       0.000000       0.000000   25006.778383  -31562.764920    1034.702474 
 4000000     301.038030   -4598.088220   -5496.322743       0.000000       0.000000       0.000000   24950.741954  -31565.082853    1118.018156 
 4010000     294.516942   -4649.869856   -5528.646816       0.000000       0.000000       0.000000   24907.563970  -31563.897655    1127.686870 
 4020000     298.882875   -4636.391552   -5528.195542       0.000000       0.000000       0.000000   24973.604868  -31561.737358    1059.936947 
 4030000     304.331106   -4592.448722   -5500.509094       0.000000       0.000000       0.000000   24988.462967  -31560.430445    1071.458384 
 4040000     312.482809   -4547.959039   -5480.342389       0.000000       0.000000       0.000000   25124.139805  -31563.337339     958.855145 
 4050000     300.084926   -4641.201086   -5536.591746       0.000000       0.000000       0.000000   24838.551588  -31564.460484    1189.317150 
 4060000     296.950534   -4638.531022   -5524.569311       0.000000       0.000000       0.000000   24930.478435  -31563.428957    1108.381212 
 4070000     313.134661   -4651.897676   -5586.226017       0.000000       0.000000       0.000000   24809.608321  -31561.858546    1166.024209 
 4080000     303.122158   -4623.060455   -5527.513581       0.000000       0.000000       0.000000   24907.681913  -31559.467986    1124.272491 
 4090000     288.071663   -4653.478353   -5513.023950       0.000000       0.000000       0.000000   24924.328428  -31561.726913    1124.374535 
 4100000     297.102841   -4652.240940   -5538.733682       0.000000       0.000000       0.000000   24943.785866  -31556.931057    1074.411508 
 4110000     300.765424   -4643.023288   -5540.444410       0.000000       0.000000       0.000000   24913.087969  -31562.033700    1108.501322 
 4120000     289.121994   -4729.760787   -5592.440350       0.000000       0.000000       0.000000   24829.851383  -31563.959233    1141.667500 
 4130000     301.182681   -4620.291165   -5518.957296       0.000000       0.000000       0.000000   25000.380684  -31555.581945    1036.243965 
 4140000     302.359387   -4551.264666   -5453.441842       0.000000       0.000000       0.000000   25078.037970  -31560.372124    1028.892312 
 4150000     293.100057   -4670.605986   -5545.155256       0.000000       0.000000       0.000000   24881.606855  -31560.148557    1133.386446 
 4160000     294.980897   -4635.920256   -5516.081559       0.000000       0.000000       0.000000   24906.232317  -31561.592899    1139.279023 
 4170000     304.835327   -4576.907552   -5486.472415       0.000000       0.000000       0.000000   24995.714418  -31560.698335    1078.511501 
 4180000     310.946392   -4622.522784   -5550.321788       0.000000       0.000000       0.000000   24932.911889  -31558.846385    1075.612709 
 4190000     292.530387   -4661.677066   -5534.526560       0.000000       0.000000       0.000000   24894.284703  -31563.107820    1134.296557 
 4200000     309.254488   -4651.281120   -5574.031834       0.000000       0.000000       0.000000   24864.392874  -31568.684202    1130.259494 
 4210000     315.843633   -4607.454083   -5549.865428       0.000000       0.000000       0.000000   24913.469723  -31563.693036    1100.357885 
 4220000     301.210079   -4669.412461   -5568.160341       0.000000       0.000000       0.000000   24887.937972  -31566.081637    1109.983323 
 4230000     309.241214   -4573.909659   -5496.620767       0.000000       0.000000       0.000000   24963.241205  -31561.343966    1101.481993 
 4240000     293.881711   -4671.211656   -5548.093218       0.000000       0.000000       0.000000   24836.071683  -31560.624348    1176.459447 
 4250000     285.412660   -4641.298862   -5492.910548       0.000000       0.000000       0.000000   24983.486658  -31558.628596    1082.231390 
 4260000     289.810003   -4694.894116   -5559.626555       0.000000       0.000000       0.000000   24859.474198  -31562.774156    1143.673403 
 4270000     297.742891   -4581.642537   -5470.045054       0.000000       0.000000       0.000000   25054.515069  -31564.341774    1039.781651 
 4280000     299.252085   -4618.302876   -5511.208513       0.000000       0.000000       0.000000   24946.594677  -31560.344376    1102.541187 
 4290000     291.688110   -4652.470206   -5522.806522       0.000000       0.000000       0.000000   24962.626717  -31560.518719    1075.085480 
 4300000     311.026919   -4589.817491   -5517.856768       0.000000       0.000000       0.000000   24965.121932  -31560.511680    1077.532980 
 4310000     298.618384   -4589.055004   -5480.069809       0.000000       0.000000       0.000000   25012.454017  -31564.730602    1072.206776 
 4320000     295.676991   -4588.685585   -5470.923887       0.000000       0.000000       0.000000   25024.124141  -31560.589312    1065.541284 
 4330000     284.450773   -4730.694557   -5579.436173       0.000000       0.000000       0.000000   24819.491952  -31561.730487    1162.802362 
 4340000     305.180855   -4652.964027   -5563.559872       0.000000       0.000000       0.000000   24912.450050  -31561.554702    1085.544780 
 4350000     292.629495   -4661.841218   -5534.986430       0.000000       0.000000       0.000000   24976.389117  -31562.579018    1051.203471 
 4360000     304.842576   -4621.871186   -5531.457679       0.000000       0.000000       0.000000   24968.535156  -31561.198447    1061.205612 
 4370000     306.277299   -4582.379132   -5496.246538       0.000000       0.000000       0.000000   25007.924101  -31561.443258    1057.272620 
 4380000     294.215794   -4645.754201   -5523.632598       0.000000       0.000000       0.000000   24891.059234  -31562.262838    1147.571005 
 4390000     304.093860   -4684.265043   -5591.617524       0.000000       0.000000       0.000000   24828.654726  -31563.110084    1142.837834 
 4400000     304.951064   -4589.745635   -5499.655832       0.000000       0.000000       0.000000   24977.125504  -31563.272833    1086.491496 
 4410000     302.172566   -4689.749330   -5591.369072       0.000000       0.000000       0.000000   24873.016846  -31559.464811    1095.078893 
 4420000     282.464665   -4663.787637   -5506.603124       0.000000       0.000000       0.000000   24950.903902  -31564.346051    1106.839025 
 4430000     303.280138   -4606.147436   -5511.071941       0.000000       0.000000       0.000000   24914.673458  -31566.984666    1141.239267 
 4440000     300.674554   -4643.902078   -5541.052065       0.000000       0.000000       0.000000   24887.775179  -31566.962857    1138.135613 
 4450000     298.260889   -4624.728321   -5514.676435       0.000000       0.000000       0.000000   24905.757631  -31563.697568    1143.263502 
 4460000     301.945796   -4590.874859   -5491.817965       0.000000       0.000000       0.000000   24992.311544  -31565.950630    1081.821120 
 4470000     306.236849   -4651.581986   -5565.328698       0.000000       0.000000       0.000000   24894.143733  -31566.140549    1106.668118 
 4480000     287.704438   -4673.841085   -5532.290959       0.000000       0.000000       0.000000   24933.436120  -31566.802652    1101.075573 
 4490000     303.014978   -4677.391735   -5581.525056       0.000000       0.000000       0.000000   24896.379014  -31563.511059    1085.606988 
 4500000     296.491375   -4621.398087   -5506.066343       0.000000       0.000000       0.000000   24995.817890  -31561.449040    1059.564806 
 4510000     294.432267   -4631.716355   -5510.240663       0.000000       0.000000       0.000000   25015.242005  -31563.001495    1037.518828 
 4520000     307.574190   -4618.313084   -5536.050140       0.000000       0.000000       0.000000   24976.430507  -31560.092741    1047.612094 
 4530000     295.365486   -4660.771096   -5542.079932       0.000000       0.000000       0.000000   24885.732244  -31560.806981    1132.994804 
 4540000     300.124953   -4567.929189   -5463.439281       0.000000       0.000000       0.000000   25012.852715  -31563.794505    1087.502509 
 4550000     302.486527   -4622.215731   -5524.772266       0.000000       0.000000       0.000000   24963.256103  -31558.085455    1070.057087 
 4560000     303.611557   -4617.095097   -5523.008485       0.000000       0.000000       0.000000   24892.256589  -31558.541303    1143.276229 
 4570000     292.482514   -4640.162706   -5512.869358       0.000000       0.000000       0.000000   24991.928390  -31564.429228    1059.631480 
 4580000     301.899062   -4661.582190   -5562.385852       0.000000       0.000000       0.000000   24866.395763  -31562.071998    1133.290383 
 4590000     305.254159   -4641.686834   -5552.501402       0.000000       0.000000       0.000000   24923.327516  -31565.198515    1089.369597 
 4600000     287.711745   -4641.700170   -5500.171845       0.000000       0.000000       0.000000   24952.604312  -31562.749836    1109.973679 
 4610000     294.828868   -4554.268296   -5433.975979       0.000000       0.000000       0.000000   25022.912481  -31560.870872    1103.982412 
 4620000     288.947152   -4714.436405   -5576.594277       0.000000       0.000000       0.000000   24910.156926  -31565.491660    1078.740457 
 4630000     300.873458   -4629.070269   -5526.813744       0.000000       0.000000       0.000000   24982.097328  -31564.812986    1055.901915 
 4640000     302.946691   -4633.836967   -5537.766535       0.000000       0.000000       0.000000   24932.946545  -31567.909871    1097.196791 
 4650000     298.001728   -4567.955167   -5457.129999       0.000000       0.000000       0.000000   24967.354942  -31563.760645    1139.275704 
 4660000     301.320155   -4620.514681   -5519.591004       0.000000       0.000000       0.000000   24937.332685  -31560.005879    1103.082190 
 4670000     291.534511   -4704.189562   -5574.067570       0.000000       0.000000       0.000000   24817.583313  -31565.768782    1174.117900 
 4680000     295.807255   -4602.783063   -5485.410046       0.000000       0.000000       0.000000   24918.711927  -31561.864402    1157.742429 
 4690000     309.499531   -4610.571180   -5534.053051       0.000000       0.000000       0.000000   24927.376112  -31564.852336    1103.423174 
 4700000     304.797215   -4635.904775   -5545.355921       0.000000       0.000000       0.000000   24969.953786  -31564.914270    1049.604563 
 4710000     308.057043   -4601.213199   -5520.390987       0.000000       0.000000       0.000000   24976.005530  -31559.323133    1062.926616 
 4720000     297.507381   -4646.000131   -5533.699936       0.000000       0.000000       0.000000   24895.447605  -31561.594614    1132.447073 
 4730000     287.200077   -4719.282101   -5576.227066       0.000000       0.000000       0.000000   24862.118852  -31566.075373    1127.729455 
 4740000     313.147871   -4580.498593   -5514.866349       0.000000       0.000000       0.000000   24959.924840  -31564.774978    1089.983789 
 4750000     301.618170   -4612.767741   -5512.733279       0.000000       0.000000       0.000000   24955.170520  -31565.344933    1097.441135 
 4760000     295.185914   -4665.075289   -5545.848320       0.000000       0.000000       0.000000   24877.550589  -31561.936978    1138.538069 
 4770000     283.421510   -4665.787986   -5511.458497       0.000000       0.000000       0.000000   24954.003367  -31560.894283    1095.432419 
 4780000     287.050140   -4668.422107   -5524.919691       0.000000       0.000000       0.000000   24929.395303  -31559.353709    1105.038716 
 4790000     313.209130   -4573.842903   -5508.393441       0.000000       0.000000       0.000000   24994.261662  -31562.022412    1059.367308 
 4800000     305.374665   -4543.686866   -5454.861001       0.000000       0.000000       0.000000   25063.323175  -31561.662166    1043.477990 
 4810000     296.776099   -4678.432491   -5563.950302       0.000000       0.000000       0.000000   24917.310876  -31564.224803    1082.963625 
 4820000     292.063317   -4750.060415   -5621.516270       0.000000       0.000000       0.000000   24909.250404  -31567.462628    1036.695954 
 4830000     296.291805   -4678.096717   -5562.169497       0.000000       0.000000       0.000000   24893.641685  -31562.841607    1107.030425 
 4840000     315.394958   -4559.442352   -5500.514946       0.000000       0.000000       0.000000   24929.495069  -31558.398152    1128.388137 
 4850000     317.391681   -4538.207740   -5485.238138       0.000000       0.000000       0.000000   25014.209524  -31563.008449    1063.560787 
 4860000     301.119398   -4542.226814   -5440.704121       0.000000       0.000000       0.000000   25006.891300  -31554.784436    1107.189015 
 4870000     299.023582   -4536.711239   -5428.935069       0.000000       0.000000       0.000000   25074.666051  -31560.148600    1056.547480 
 4880000     316.072486   -4603.743668   -5546.837864       0.000000       0.000000       0.000000   24935.572266  -31563.503413    1081.093284 
 4890000     299.783676   -4687.355696   -5581.847488       0.000000       0.000000       0.000000   24865.483510  -31562.900087    1115.569089 
 4900000     299.552224   -4689.263449   -5583.064636       0.000000       0.000000       0.000000   24879.951587  -31558.195346    1095.179123 
 4910000     307.238821   -4616.297817   -5533.034203       0.000000       0.000000       0.000000   24843.753179  -31560.243661    1183.456278 
 4920000     312.779758   -4525.683259   -5458.952643       0.000000       0.000000       0.000000   25131.992459  -31566.223312     975.278209 
 4930000     287.563191   -4746.851129   -5604.879551       0.000000       0.000000       0.000000   24820.346405  -31565.620494    1140.394537 
 4940000     300.184388   -4634.834394   -5530.521826       0.000000       0.000000       0.000000   24962.593183  -31561.223457    1068.108448 
 4950000     298.161586   -4645.048642   -5534.700459       0.000000       0.000000       0.000000   24940.819137  -31561.289022    1085.769426 
 4960000     293.464451   -4658.802363   -5534.438909       0.000000       0.000000       0.000000   24885.393748  -31562.661442    1142.828785 
 4970000     299.255939   -4612.188734   -5505.105870       0.000000       0.000000       0.000000   24939.803354  -31558.251034    1113.341810 
 4980000     307.655770   -4653.242633   -5571.223108       0.000000       0.000000       0.000000   24879.402880  -31563.001394    1112.375406 
 4990000     287.062072   -4702.708333   -5559.241520       0.000000       0.000000       0.000000   24881.235881  -31562.032435    1121.555034 
 5000000     314.690471   -4566.455521   -5505.426071       0.000000       0.000000       0.000000   24935.935554  -31564.677662    1123.316036 
Loop time of 9783.46 on 8 procs for 5000000 steps with 1503 atoms

Performance: 44.156 ns/day, 0.544 hours/ns, 511.067 timesteps/s
99.2% CPU use with 8 MPI tasks x 1 OpenMP threads

MPI task timing breakdown:
Section |  min time  |  avg time  |  max time  |%varavg| %total
---------------------------------------------------------------
Pair    | 4866       | 4881.2     | 4894.8     |  14.7 | 49.89
Bond    | 1.3406     | 1.4667     | 1.5609     |   5.5 |  0.01
Kspace  | 2633.6     | 2649.4     | 2664.7     |  19.7 | 27.08
Neigh   | 353.35     | 353.56     | 353.76     |   0.8 |  3.61
Comm    | 449.5      | 463.98     | 478.9      |  36.1 |  4.74
Output  | 2.017      | 2.408      | 2.6412     |  11.8 |  0.02
Modify  | 1330.7     | 1381.7     | 1421.4     |  61.8 | 14.12
Other   |            | 49.8       |            |       |  0.51

Nlocal:    187.875 ave 201 max 177 min
Histogram: 2 0 1 0 1 1 2 0 0 1
Nghost:    4635 ave 4655 max 4615 min
Histogram: 1 0 0 1 2 2 0 1 0 1
Neighs:    68342.6 ave 74472 max 63261 min
Histogram: 1 1 0 2 1 1 0 1 0 1

Total # of neighbors = 546741
Ave neighs/atom = 363.766
Ave special neighs/atom = 2
Neighbor list builds = 217443
Dangerous builds = 0
Total wall time: 3:15:54
