#LAMMPS data file generated on 2024-06-27 via gen_data.py, version 1 May 2020

40 atoms
12 atom types
38 bonds
17 bond types

0.0000000000000000e+00   3.0000000000000000e+02    xlo xhi
0.0000000000000000e+00   3.0000000000000000e+02    ylo yhi
0.0000000000000000e+00   3.0000000000000000e+02    zlo zhi

Masses

1  129.08250  # E
2  128.08260  # Q
3  147.18000  # F
4  87.06820  # S
5  115.08440  # D
6  114.08450  # N
7  113.18460  # L
8  101.08630  # T
9  57.04220  # G
10 156.17880  # R
11 163.17780  # Y
12 99.05650  # V

Atoms

1             1    1 -1.00000  123.8714732886  123.1814171158   95.2789182352 0 0 0
2             1    2  0.00000  128.2045517103  126.4463959708   96.1813286008 0 0 0
3             1    1 -1.00000  131.9981645754  129.7623701676   98.3864144395 0 0 0
4             1    3  0.00000  132.6351197873  133.2234336018  102.6136754869 0 0 0
5             1    4  0.00000  138.0633158152  133.7922404051  101.9361109487 0 0 0
6             1    5 -1.00000  141.1912886390  134.6548233413  106.3769214256 0 0 0
7             1    6  0.00000  141.3670155384  140.0264646689  107.5457535368 0 0 0
8             1    1 -1.00000  145.8952105625  143.1165101703  107.1019893843 0 0 0
9             1    7  0.00000  145.8045105407  145.3367148616  112.1330585187 0 0 0
10            1    2  0.00000  146.0110323349  150.8264561372  112.3976118694 0 0 0
11            1    1 -1.00000  149.4232484633  153.6761670452  115.6343367317 0 0 0
12            1    7  0.00000  154.3000858436  152.9838867796  118.0834016961 0 0 0
13            1    4  0.00000  155.1392106976  158.2857291480  116.8861669741 0 0 0
14            1    8  0.00000  159.8268908679  158.7880011229  119.7185888150 0 0 0
15            1    2  0.00000  160.8529674018  163.3511235710  122.6124292511 0 0 0
16            1    9  0.00000  163.6289421866  167.7468499331  120.8178243518 0 0 0
17            1    4  0.00000  168.9846004101  168.7930283828  121.5040558314 0 0 0
18            1   10  1.00000  170.7420791420  171.5237527057  125.9432221022 0 0 0
19            1   11  0.00000  174.8704402957  174.9341594920  127.1988385790 0 0 0
20            1   12  0.00000  176.5111702103  180.0301589967  125.9386114585 0 0 0
21            2    1 -1.00000  155.6081711659  178.2294879418  216.9982436747 0 0 0
22            2    2  0.00000  155.0052797220  173.4393226555  214.3636965718 0 0 0
23            2    1 -1.00000  154.5756181645  169.4621650725  210.5891508369 0 0 0
24            2    3  0.00000  153.3793269535  168.8121592711  205.2599118859 0 0 0
25            2    4  0.00000  154.9648189221  163.5494380043  205.0651631117 0 0 0
26            2    5 -1.00000  157.0761870656  161.6114264603  200.3709862064 0 0 0
27            2    6  0.00000  153.0380112419  159.9064480860  197.0486731929 0 0 0
28            2    1 -1.00000  152.2056079599  154.6445849723  195.6812817535 0 0 0
29            2    7  0.00000  152.0178034942  155.2913274260  190.2227429673 0 0 0
30            2    2  0.00000  147.5852227762  153.2783399712  187.6634444920 0 0 0
31            2    1 -1.00000  147.7375774268  150.0788649387  183.1934773136 0 0 0
32            2    7  0.00000  151.2148391932  146.5763074233  180.7641861702 0 0 0
33            2    4  0.00000  146.7091195296  143.6716395120  179.5360051420 0 0 0
34            2    8  0.00000  149.2339819220  140.0280825288  176.2804255608 0 0 0
35            2    2  0.00000  146.8221566659  138.2938053900  171.6517525610 0 0 0
36            2    9  0.00000  143.6922950279  133.8004283608  171.1393250044 0 0 0
37            2    4  0.00000  145.3111366129  128.7992046102  169.5220461419 0 0 0
38            2   10  1.00000  145.2739508054  127.4489556280  164.1903270100 0 0 0
39            2   11  0.00000  144.5828144812  122.8863670412  161.1976811959 0 0 0
40            2   12  0.00000  140.5672618837  119.3145087656  160.0286885542 0 0 0

Bonds

1  1 3 4
2  2 12 13
3  3 8 9
4  4 17 18
5  5 13 14
6  6 18 19
7  7 4 5
8  8 5 6
9  9 14 15
10 10 9 10
11 11 1 2
12 12 10 11
13 13 19 20
14 14 6 7
15 15 15 16
16 12 2 3
17 3 11 12
18 16 7 8
19 17 16 17
20 1 23 24
21 2 32 33
22 3 28 29
23 4 37 38
24 5 33 34
25 6 38 39
26 7 24 25
27 8 25 26
28 9 34 35
29 10 29 30
30 11 21 22
31 12 30 31
32 13 39 40
33 14 26 27
34 15 35 36
35 12 22 23
36 3 31 32
37 16 27 28
38 17 36 37
