LAMMPS (3 Mar 2020)
  using 1 OpenMP thread(s) per MPI task
Reading data file ...
  orthogonal box = (0 0 0) to (24 24 24)
  2 by 2 by 2 MPI processor grid
  reading atoms ...
  1503 atoms
  scanning bonds ...
  2 = max bonds/atom
  scanning angles ...
  1 = max angles/atom
  reading bonds ...
  1002 bonds
  reading angles ...
  501 angles
Finding 1-2 1-3 1-4 neighbors ...
  special bond factors lj:   0          0          0         
  special bond factors coul: 0          0          0         
  2 = max # of 1-2 neighbors
  1 = max # of 1-3 neighbors
  1 = max # of 1-4 neighbors
  2 = max # of special neighbors
  special bonds CPU = 0.00130232 secs
  read_data CPU = 0.00708233 secs
Setting atom values ...
  1 settings made for charge
Setting atom values ...
  2 settings made for charge
Finding SHAKE clusters ...
  0 = # of size 2 clusters
  0 = # of size 3 clusters
  0 = # of size 4 clusters
  501 = # of frozen angles
  find clusters CPU = 0.000262178 secs
PPPM initialization ...
  using 12-bit tables for long-range coulomb (src/kspace.cpp:332)
  G vector (1/distance) = 0.315108
  grid = 24 24 24
  stencil order = 5
  estimated absolute RMS force accuracy = 0.00171378
  estimated relative force accuracy = 5.16099e-06
  using double precision MKL FFT
  3d grid and FFT values/proc = 6859 1728
Neighbor list info ...
  update every 1 steps, delay 10 steps, check yes
  max neighbors/atom: 2000, page size: 100000
  master list distance cutoff = 12
  ghost atom cutoff = 12
  binsize = 6, bins = 4 4 4
  3 neighbor lists, perpetual/occasional/extra = 3 0 0
  (1) pair lj/cut/coul/long, perpetual, skip from (3)
      attributes: half, newton on
      pair build: skip
      stencil: none
      bin: none
  (2) pair lj/cut/coul/long/soft, perpetual, skip from (3)
      attributes: half, newton on
      pair build: skip
      stencil: none
      bin: none
  (3) neighbor class addition, perpetual
      attributes: half, newton on
      pair build: half/bin/newton
      stencil: half/bin/3d/newton
      bin: standard
Per MPI rank memory allocation (min/avg/max) = 9.731 | 9.732 | 9.733 Mbytes
Step TotEng PotEng E_coul E_long E_vdwl 
       0   -5540.372915840846   -5540.372915840846   25242.338691101835  -31841.640710573174    1058.929103630493 
    1000   -5549.688644322592   -5549.688644322592   25204.322010737345  -31841.332439673144    1087.321784613205 
    2000   -5512.134227504397   -5512.134227504397   25176.990375407135  -31840.977435903096    1151.852832991570 
    3000   -5456.404014294734   -5456.404014294734   25341.048757808723  -31840.766852104844    1043.314080001383 
    4000   -5510.528018659807   -5510.528018659807   25251.562584566545  -31840.830708281592    1078.740105055238 
    5000   -5474.354565820126   -5474.354565820126   25269.259240048636  -31840.787206136960    1097.173400268200 
    6000   -5584.655029255686   -5584.655029255686   25161.822039974002  -31842.177145267699    1095.700076038008 
    7000   -5507.330084273479   -5507.330084273479   25271.655206737105  -31840.721224010980    1061.735933000401 
    8000   -5513.248593361110   -5513.248593361110   25235.060449265082  -31839.034596443751    1090.725553817558 
    9000   -5547.460082044283   -5547.460082044283   25141.235385374901  -31846.506833846081    1157.811366426898 
   10000   -5549.959156437009   -5549.959156437009   25224.289621300031  -31838.633475181781    1064.384697444738 
   11000   -5505.043775099479   -5505.043775099479   25285.407160305003  -31839.620306835855    1049.169371431372 
   12000   -5517.928405564326   -5517.928405564326   25216.532437677088  -31842.055380305679    1107.594537064268 
   13000   -5518.635375365007   -5518.635375365007   25241.965801143386  -31847.000968895645    1086.399792387250 
   14000   -5543.015021735111   -5543.015021735111   25145.116739627229  -31842.785074062089    1154.653312699748 
   15000   -5533.477974576042   -5533.477974576042   25242.970775381335  -31837.520903915971    1061.072153958595 
   16000   -5464.155461314876   -5464.155461314876   25309.019662602084  -31838.780730902359    1065.605606985397 
   17000   -5540.614717368022   -5540.614717368022   25235.117978134131  -31843.785148916675    1068.052453414522 
   18000   -5563.533421188418   -5563.533421188418   25148.216012777986  -31839.718124093768    1127.968690127365 
   19000   -5583.010332056365   -5583.010332056365   25174.604040509174  -31839.798947120369    1082.184574554832 
   20000   -5450.129319759657   -5450.129319759657   25298.909297313407  -31843.061528583527    1094.022911510459 
   21000   -5576.366305782030   -5576.366305782030   25119.676223034592  -31840.536099962395    1144.493571145774 
   22000   -5550.120875595061   -5550.120875595061   25134.142671148889  -31844.563561911065    1160.300015167109 
   23000   -5616.583006413486   -5616.583006413486   25066.641076450578  -31844.103375904699    1160.879293040634 
   24000   -5564.127688527580   -5564.127688527580   25133.848173084145  -31846.578818842605    1148.602957230879 
   25000   -5528.006026302301   -5528.006026302301   25207.149307751617  -31843.618265450397    1108.462931396477 
   26000   -5559.761329125704   -5559.761329125704   25142.794807141185  -31841.742269026068    1139.186132759178 
   27000   -5530.374611080675   -5530.374611080675   25263.532638883153  -31841.442335174717    1047.535085210894 
   28000   -5494.969632371503   -5494.969632371503   25198.837611383151  -31843.679554040053    1149.872310285402 
   29000   -5583.994457544180   -5583.994457544180   25162.639494583054  -31843.620060022560    1096.986107895329 
   30000   -5563.681947756537   -5563.681947756537   25194.915666856283  -31839.416898616466    1080.819284003645 
   31000   -5528.178138376417   -5528.178138376417   25269.336967412564  -31844.910047617828    1047.394941828848 
   32000   -5433.373859034455   -5433.373859034455   25452.900924828024  -31840.905562164346     954.630778301867 
   33000   -5497.748921727201   -5497.748921727201   25253.492671681470  -31844.597959306251    1093.356365897579 
   34000   -5578.412938198413   -5578.412938198413   25145.650731169851  -31840.864900831821    1116.801231463556 
   35000   -5505.918923640111   -5505.918923640111   25259.902794129415  -31838.805133146929    1072.983415377405 
   36000   -5502.223113592001   -5502.223113592001   25252.831721613416  -31838.226007968118    1083.171172762698 
   37000   -5577.517971084242   -5577.517971084242   25043.810181071713  -31842.160709835596    1220.832557679643 
   38000   -5562.899089660408   -5562.899089660408   25195.196393140304  -31841.817695466882    1083.722212666168 
   39000   -5560.342944315275   -5560.342944315275   25205.021214797092  -31838.438924804534    1073.074765692170 
   40000   -5461.925873767519   -5461.925873767519   25271.693405565169  -31841.428510718375    1107.809231385689 
   41000   -5498.970634539332   -5498.970634539332   25224.152708250102  -31844.249880415027    1121.126537625595 
   42000   -5565.047159680682   -5565.047159680682   25142.672686380323  -31841.456216367813    1133.736370306810 
   43000   -5553.619635954703   -5553.619635954703   25157.229659937424  -31842.737098250556    1131.887802358432 
   44000   -5491.827721599093   -5491.827721599093   25266.783679982887  -31843.208782037091    1084.597380455112 
   45000   -5462.449272173995   -5462.449272173995   25306.769440608976  -31836.921458851750    1067.702746068775 
   46000   -5474.358429520016   -5474.358429520016   25315.581602993676  -31840.791923529414    1050.851891015720 
   47000   -5511.471814638870   -5511.471814638870   25300.532958919393  -31841.811884494789    1029.807110936527 
   48000   -5579.016140352975   -5579.016140352975   25194.732015968282  -31842.579745418279    1068.831589097022 
   49000   -5507.213761925217   -5507.213761925217   25322.940663009347  -31838.059791206608    1007.905366272039 
   50000   -5489.438931418808   -5489.438931418808   25289.161436231996  -31840.981134599322    1062.380766948516 
   51000   -5414.858153296282   -5414.858153296282   25377.818567546929  -31839.467341166292    1046.790620323075 
   52000   -5501.733979990895   -5501.733979990895   25216.336279488845  -31843.035752017488    1124.965492537744 
   53000   -5555.850377681381   -5555.850377681381   25206.733315425467  -31842.857195069209    1080.273501962363 
   54000   -5558.421879172609   -5558.421879172609   25163.588941504506  -31843.232916179011    1121.222095501895 
   55000   -5529.846650610063   -5529.846650610063   25244.279807544288  -31843.806902754459    1069.680444600107 
   56000   -5524.686688155562   -5524.686688155562   25202.173965706286  -31838.561591238551    1111.700937376703 
   57000   -5484.694778698944   -5484.694778698944   25317.771065621506  -31837.842878941905    1035.377034621450 
   58000   -5488.186069084921   -5488.186069084921   25307.615882373997  -31842.163988458713    1046.362036999798 
   59000   -5544.292237049522   -5544.292237049522   25218.346252203133  -31844.756329561693    1082.117840309036 
   60000   -5477.335748541045   -5477.335748541045   25303.183388272748  -31838.151427702258    1057.632290888469 
   61000   -5532.590830585457   -5532.590830585457   25184.618031004953  -31843.095102927429    1125.886241337015 
   62000   -5541.221082590091   -5541.221082590091   25165.503400817004  -31835.770490130679    1129.046006723588 
   63000   -5469.698400564750   -5469.698400564750   25276.552486129276  -31836.798058835073    1090.547172141048 
   64000   -5538.895590274489   -5538.895590274489   25168.332321632734  -31840.803306675250    1133.575394768029 
   65000   -5556.327981487579   -5556.327981487579   25201.482627089048  -31842.056928853322    1084.246320276695 
   66000   -5563.669413403135   -5563.669413403135   25165.637376125542  -31842.633582068738    1113.326792540062 
   67000   -5591.693503000683   -5591.693503000683   25170.726730749484  -31842.708266858226    1080.288033108059 
   68000   -5538.107288461775   -5538.107288461775   25253.323844723556  -31841.120590552324    1049.689457366993 
   69000   -5545.594734688304   -5545.594734688304   25129.094478414634  -31841.245714300960    1166.556501198022 
   70000   -5491.380292906884   -5491.380292906884   25293.534576814258  -31839.762696761536    1054.847827040394 
   71000   -5487.565017786557   -5487.565017786557   25242.539978025234  -31843.468292592945    1113.363296781152 
   72000   -5516.199760533440   -5516.199760533440   25202.770618537081  -31842.252135903957    1123.281756833438 
   73000   -5562.370415724738   -5562.370415724738   25223.774575409156  -31842.485411530273    1056.340420396379 
   74000   -5496.367309188085   -5496.367309188085   25234.220806008241  -31841.041363732955    1110.453248536636 
   75000   -5514.411743294921   -5514.411743294921   25257.868409715193  -31838.260071166223    1065.979918156108 
   76000   -5491.496751166833   -5491.496751166833   25259.773553726802  -31839.341505393229    1088.071200499596 
   77000   -5601.725272763826   -5601.725272763826   25091.402628429852  -31841.882690655108    1148.754789461427 
   78000   -5580.042519930757   -5580.042519930757   25161.754776906706  -31842.994906894943    1101.197610057474 
   79000   -5565.589515033571   -5565.589515033571   25150.305539937133  -31838.323783382191    1122.428728411488 
   80000   -5576.631801904041   -5576.631801904041   25118.591333459364  -31844.402616391795    1149.179481028389 
   81000   -5555.532584349105   -5555.532584349105   25117.842278201733  -31839.147803438787    1165.772940887947 
   82000   -5470.229825216644   -5470.229825216644   25268.741599087491  -31842.162685065097    1103.191260760963 
   83000   -5538.262588594043   -5538.262588594043   25145.455296210424  -31843.266358875342    1159.548474070873 
   84000   -5567.869665218048   -5567.869665218048   25134.519927199071  -31839.214062713254    1136.824470296138 
   85000   -5582.495903663319   -5582.495903663319   25187.267493607789  -31843.304615119439    1073.541217848327 
   86000   -5528.357880960233   -5528.357880960233   25278.956329317378  -31839.407677435611    1032.093467157999 
   87000   -5529.207161667575   -5529.207161667575   25168.382117308160  -31843.427354956519    1145.838075980781 
   88000   -5525.818163651624   -5525.818163651624   25202.864161481179  -31844.722627238636    1116.040302105835 
   89000   -5562.487074391815   -5562.487074391815   25174.251659207483  -31838.323252740229    1101.584519140931 
   90000   -5541.082996865207   -5541.082996865207   25245.315599740134  -31840.413032444932    1054.014435839593 
   91000   -5510.639390421704   -5510.639390421704   25313.001610188359  -31838.959733782958    1015.318733172892 
   92000   -5510.355602544467   -5510.355602544467   25268.527878057248  -31838.762659943251    1059.879179341539 
   93000   -5493.535696144729   -5493.535696144729   25287.989301007721  -31842.533236126717    1061.008238974263 
   94000   -5520.959887862642   -5520.959887862642   25250.170020127720  -31842.268972659534    1071.139064669170 
   95000   -5529.047790947778   -5529.047790947778   25260.839524673491  -31838.040152152487    1048.152836531221 
   96000   -5518.156838682837   -5518.156838682837   25185.894852248741  -31837.219394649714    1133.167703718138 
   97000   -5516.259713397045   -5516.259713397045   25211.014174785480  -31841.752502647883    1114.478614465360 
   98000   -5536.751651469920   -5536.751651469920   25251.960286738584  -31846.544656275797    1057.832718067291 
   99000   -5528.774291695048   -5528.774291695048   25272.906879074668  -31842.810395191456    1041.129224421740 
  100000   -5627.738435107640   -5627.738435107640   25058.400726520274  -31837.578369939161    1151.439208311244 
  101000   -5623.125087793600   -5623.125087793600   25045.105132426586  -31844.130370922176    1175.900150701997 
  102000   -5554.995941488658   -5554.995941488658   25194.298343219052  -31843.544650899166    1094.250366191449 
  103000   -5535.246775850039   -5535.246775850039   25178.829736855900  -31848.623453650365    1134.546940944427 
  104000   -5588.800376481409   -5588.800376481409   25085.203254898486  -31838.228104210473    1164.224472830582 
  105000   -5506.628618850122   -5506.628618850122   25255.913730980505  -31836.725151554685    1074.182801724055 
  106000   -5498.617609617228   -5498.617609617228   25222.865337652242  -31842.781290886465    1121.298343616997 
  107000   -5481.688233911293   -5481.688233911293   25279.553164329587  -31843.201443652724    1081.960045411846 
  108000   -5538.486556105123   -5538.486556105123   25152.097494975525  -31843.923730432274    1153.339679351624 
  109000   -5524.076309419823   -5524.076309419823   25255.089175701607  -31841.189801778033    1062.024316656602 
  110000   -5502.244865571403   -5502.244865571403   25257.994566608628  -31845.398221817173    1085.158789637142 
  111000   -5539.139369762979   -5539.139369762979   25136.678900440831  -31838.207918887394    1162.389648683582 
  112000   -5504.469652607302   -5504.469652607302   25236.532972482157  -31837.342351604635    1096.339726515172 
  113000   -5553.023583103884   -5553.023583103884   25203.335116107912  -31841.954764657534    1085.596065445736 
  114000   -5507.153438853522   -5507.153438853522   25264.541654622706  -31839.700274745745    1068.005181269519 
  115000   -5517.345084597251   -5517.345084597251   25182.130837131539  -31842.297752092225    1142.821830363434 
  116000   -5513.423259772761   -5513.423259772761   25307.549060964571  -31837.487261797927    1016.514941060594 
  117000   -5547.752646117602   -5547.752646117602   25122.173712916341  -31841.695555584480    1171.769196550541 
  118000   -5545.095251516330   -5545.095251516330   25233.160213845975  -31838.320124763999    1060.064659401691 
  119000   -5546.299580069306   -5546.299580069306   25257.567595494544  -31843.263644879244    1039.396469315392 
  120000   -5490.322432058139   -5490.322432058139   25298.293353986683  -31842.751355363805    1054.135569318985 
  121000   -5479.975273027048   -5479.975273027048   25254.085577385555  -31837.743193441263    1103.682343028663 
  122000   -5532.719875590385   -5532.719875590385   25258.859779944014  -31840.985388586138    1049.405733051741 
  123000   -5580.609606199796   -5580.609606199796   25137.282365747717  -31844.896623460048    1127.004651512538 
  124000   -5558.881389528207   -5558.881389528207   25144.425199929825  -31843.651487917716    1140.344898459683 
  125000   -5513.576241875831   -5513.576241875831   25284.222951272284  -31839.744720310249    1041.945527162136 
  126000   -5555.440927338015   -5555.440927338015   25164.204165594696  -31840.808103936244    1121.163011003535 
  127000   -5525.834880974959   -5525.834880974959   25198.782169863771  -31844.749705406335    1120.132654567605 
  128000   -5545.564955435686   -5545.564955435686   25172.422674086079  -31847.112822883966    1129.125193362198 
  129000   -5526.424235251547   -5526.424235251547   25354.287191135107  -31841.614675566194     960.903249179539 
  130000   -5543.561244135624   -5543.561244135624   25228.062933006848  -31844.143247559961    1072.519070417487 
  131000   -5501.548970727563   -5501.548970727563   25212.197485912591  -31841.463087460710    1127.716630820557 
  132000   -5501.707419770970   -5501.707419770970   25310.781573602264  -31840.691037188935    1028.202043815704 
  133000   -5541.990578588880   -5541.990578588880   25221.649724278388  -31838.182805146109    1074.542502278843 
  134000   -5573.065861405707   -5573.065861405707   25155.534666059375  -31845.158787885426    1116.558260420346 
  135000   -5527.254400933674   -5527.254400933674   25218.263605649121  -31842.548652625108    1097.030646042317 
  136000   -5504.310049994325   -5504.310049994325   25225.130393488907  -31842.142977344494    1112.702533861264 
  137000   -5572.168674606626   -5572.168674606626   25177.686031921141  -31836.572975601041    1086.718269073277 
  138000   -5538.383403841272   -5538.383403841272   25200.262975083788  -31841.979852590808    1103.333473665751 
  139000   -5508.046948075724   -5508.046948075724   25157.263873017189  -31836.619260081501    1171.308438988590 
  140000   -5512.118189527915   -5512.118189527915   25196.306798463469  -31843.762397762959    1135.337409771579 
  141000   -5538.052928868387   -5538.052928868387   25219.300137075421  -31838.938670077918    1081.585604134109 
  142000   -5535.557211703854   -5535.557211703854   25192.227531474840  -31839.408712521781    1111.623969343085 
  143000   -5516.225870278653   -5516.225870278653   25256.602233129357  -31844.111424670049    1071.283321262044 
  144000   -5561.627124854484   -5561.627124854484   25122.962971968340  -31842.815560965766    1158.225464142943 
  145000   -5484.430196924463   -5484.430196924463   25329.684885745723  -31838.137026150060    1024.021943479876 
  146000   -5482.528559609822   -5482.528559609822   25227.332629473181  -31842.109411494599    1132.248222411600 
  147000   -5537.582287536748   -5537.582287536748   25271.319457643833  -31845.459738098365    1036.557992917786 
  148000   -5456.675902257666   -5456.675902257666   25318.602253061312  -31835.378660502058    1060.100505183079 
  149000   -5573.593494616918   -5573.593494616918   25237.345394089411  -31842.767121538629    1031.828232832299 
  150000   -5550.009286066361   -5550.009286066361   25203.285117337815  -31846.062685186156    1092.768281781984 
  151000   -5518.963081863920   -5518.963081863920   25223.184603996517  -31844.429242270075    1102.281556409638 
  152000   -5553.213345811033   -5553.213345811033   25139.297808341522  -31840.509451061684    1147.998296909130 
  153000   -5508.916193774898   -5508.916193774898   25183.582894759209  -31836.766867330258    1144.267778796151 
  154000   -5548.754779531526   -5548.754779531526   25253.986838027733  -31841.060013688806    1038.318396129544 
  155000   -5528.936812032793   -5528.936812032793   25269.403047658758  -31841.212877179129    1042.873017487582 
  156000   -5527.543589494959   -5527.543589494959   25279.546805605347  -31840.294546803474    1033.204151703164 
  157000   -5533.321836814801   -5533.321836814801   25208.858410687699  -31840.347491767232    1098.167244264733 
  158000   -5564.730979629450   -5564.730979629450   25191.503523528881  -31844.744337802087    1088.509834643756 
  159000   -5558.886836913291   -5558.886836913291   25192.622860276595  -31842.694562639597    1091.184865449713 
  160000   -5520.772495949088   -5520.772495949088   25240.465157360846  -31845.005451978315    1083.767798668382 
  161000   -5519.206474635354   -5519.206474635354   25208.934868663207  -31842.145478006492    1114.004134707930 
  162000   -5568.110768696562   -5568.110768696562   25169.267797878096  -31847.821768296759    1110.443201722096 
  163000   -5522.116623450340   -5522.116623450340   25250.048737276924  -31838.377114556166    1066.211753828898 
  164000   -5553.337370174246   -5553.337370174246   25220.598995626911  -31843.042164666567    1069.105798865408 
  165000   -5538.077955936453   -5538.077955936453   25272.286671711263  -31842.884884703079    1032.520257055364 
  166000   -5503.900730694171   -5503.900730694171   25241.801876140715  -31839.511505863949    1093.808899029057 
  167000   -5521.946200836523   -5521.946200836523   25265.039416172225  -31841.419655719466    1054.434038710718 
  168000   -5500.788472576547   -5500.788472576547   25241.873631157352  -31844.678103273731    1102.015999539826 
  169000   -5547.610063742839   -5547.610063742839   25224.461016081517  -31841.428184148423    1069.357104324065 
  170000   -5497.267236410007   -5497.267236410007   25261.933243684245  -31842.018484904882    1082.818004810634 
  171000   -5465.269450229673   -5465.269450229673   25351.235801359275  -31844.811837699104    1028.306586110153 
  172000   -5490.664301061355   -5490.664301061355   25245.498054427357  -31845.748701799632    1109.586346310921 
  173000   -5536.386934264716   -5536.386934264716   25277.813672785211  -31844.654052239384    1030.453445189455 
  174000   -5538.717089238475   -5538.717089238475   25122.812773667414  -31844.302296058184    1182.772433152301 
  175000   -5479.721184402628   -5479.721184402628   25251.821467503876  -31841.059322333214    1109.516670426711 
  176000   -5521.871743793294   -5521.871743793294   25244.536475255893  -31840.155022386924    1073.746803337738 
  177000   -5494.346419354682   -5494.346419354682   25246.708284950975  -31841.703901101042    1100.649196795384 
  178000   -5483.787442332523   -5483.787442332523   25265.863275047413  -31839.974937337432    1090.324219957494 
  179000   -5553.297928029337   -5553.297928029337   25184.470042205317  -31841.642327559446    1103.874357324790 
  180000   -5521.390945423216   -5521.390945423216   25216.925453943997  -31838.339032240958    1100.022632873748 
  181000   -5547.156286840618   -5547.156286840618   25155.525613210142  -31842.991673209170    1140.309773158408 
  182000   -5588.478996208374   -5588.478996208374   25134.730214109048  -31844.215080712340    1121.005870394918 
  183000   -5564.202972978306   -5564.202972978306   25161.330568172605  -31841.680384136082    1116.146842985167 
  184000   -5489.982668927969   -5489.982668927969   25283.657250792268  -31840.079622274079    1066.439702553837 
  185000   -5538.527615719257   -5538.527615719257   25225.730690054959  -31842.129629283299    1077.871323509083 
  186000   -5535.547216925082   -5535.547216925082   25269.399861301728  -31846.027449303536    1041.080371076727 
  187000   -5537.095193968820   -5537.095193968820   25144.460471694212  -31843.469822011994    1161.914156348957 
  188000   -5477.922839654351   -5477.922839654351   25333.043105988072  -31841.826432094404    1030.860486451975 
  189000   -5573.027670539042   -5573.027670539042   25179.006777558428  -31839.662253200760    1087.627805103290 
  190000   -5580.756900026732   -5580.756900026732   25130.494156688692  -31843.564387308688    1132.313330593261 
  191000   -5663.182955556826   -5663.182955556826   25099.021227809164  -31842.018131277226    1079.813947911236 
  192000   -5484.341094701584   -5484.341094701584   25273.277899550103  -31843.524902254947    1085.905908003259 
  193000   -5540.472040041841   -5540.472040041841   25229.554446478447  -31842.854262790603    1072.827776270315 
  194000   -5499.511524195103   -5499.511524195103   25287.613569623150  -31845.729505071842    1058.604411253582 
  195000   -5517.980206264154   -5517.980206264154   25266.937548751550  -31844.467982847087    1059.550227831377 
  196000   -5582.363532376625   -5582.363532376625   25184.596842326144  -31847.416146517437    1080.455771814663 
  197000   -5530.727335827436   -5530.727335827436   25215.555137560936  -31844.366198039472    1098.083724651098 
  198000   -5497.167465480248   -5497.167465480248   25315.279055589708  -31835.517721575521    1023.071200505567 
  199000   -5482.096419677426   -5482.096419677426   25205.225741351202  -31839.301587161423    1151.979426132791 
  200000   -5563.933995839579   -5563.933995839579   25215.701548925801  -31845.887281762385    1066.251736997003 
  201000   -5480.556663787425   -5480.556663787425   25283.771049345050  -31841.227715172132    1076.900002039656 
  202000   -5519.568338237339   -5519.568338237339   25288.761488478456  -31840.073206645557    1031.743379929754 
  203000   -5566.319623272757   -5566.319623272757   25203.693089264882  -31843.662253705828    1073.649541168193 
  204000   -5472.773482387289   -5472.773482387289   25338.951552161081  -31842.664191553773    1030.939157005408 
  205000   -5423.204291031103   -5423.204291031103   25371.879315966511  -31839.286260212823    1044.202653215207 
  206000   -5469.070563821882   -5469.070563821882   25312.863537330475  -31839.524740981007    1057.590639828650 
  207000   -5552.489742604906   -5552.489742604906   25163.298672343004  -31840.085730968960    1124.297316021052 
  208000   -5520.696440402138   -5520.696440402138   25224.759177203578  -31840.786774350508    1095.331156744790 
  209000   -5516.123360176673   -5516.123360176673   25311.642594476478  -31844.680342141459    1016.914387488310 
  210000   -5574.351217986052   -5574.351217986052   25153.835087276690  -31846.228412277658    1118.042107014920 
  211000   -5585.902432946441   -5585.902432946441   25121.553217442659  -31841.512849604071    1134.057199214970 
  212000   -5603.249505124470   -5603.249505124470   25121.797096813269  -31842.959687255367    1117.913085317628 
  213000   -5520.444476526249   -5520.444476526249   25203.529414918106  -31835.842427346230    1111.868535901876 
  214000   -5485.211200320999   -5485.211200320999   25250.992879702571  -31839.312243877284    1103.108163853708 
  215000   -5527.682497322679   -5527.682497322679   25228.427174642035  -31839.945920582952    1083.836248618239 
  216000   -5580.073789734259   -5580.073789734259   25175.953118652084  -31845.546393888428    1089.519485502083 
  217000   -5532.803231033879   -5532.803231033879   25170.464880260843  -31840.077690046743    1136.809578752020 
  218000   -5563.801688196952   -5563.801688196952   25160.089064850268  -31837.725102128468    1113.834349081252 
  219000   -5542.045589175323   -5542.045589175323   25205.380184027850  -31838.845768448926    1091.419995245752 
  220000   -5523.738258989044   -5523.738258989044   25228.718674142605  -31843.861479310213    1091.404546178563 
  221000   -5540.163855394680   -5540.163855394680   25218.974483097845  -31839.176770312442    1080.038431819917 
  222000   -5606.754745406797   -5606.754745406797   25139.501618636888  -31842.577722197388    1096.321358153706 
  223000   -5571.207484973384   -5571.207484973384   25175.851032857845  -31842.122630907288    1095.064113076060 
  224000   -5536.121124861595   -5536.121124861595   25268.317595011446  -31843.722439595324    1039.283719722283 
  225000   -5488.949238465248   -5488.949238465248   25277.686490293341  -31841.158679785505    1074.522951026925 
  226000   -5567.081199948658   -5567.081199948658   25157.125846351213  -31842.801137773233    1118.594091473366 
  227000   -5535.445636179185   -5535.445636179185   25206.996546302318  -31838.977115472604    1096.534932991101 
  228000   -5497.941362911730   -5497.941362911730   25280.384782520814  -31840.799691098673    1062.473545666131 
  229000   -5602.444953786806   -5602.444953786806   25110.469087521131  -31843.855432414312    1130.941391106369 
  230000   -5576.916753418820   -5576.916753418820   25100.822336868710  -31841.089166576156    1163.350076288627 
  231000   -5568.903977571954   -5568.903977571954   25180.011459483518  -31841.743811938242    1092.828374882775 
  232000   -5562.808627551185   -5562.808627551185   25173.050615529159  -31842.492463256734    1106.633220176387 
  233000   -5576.507280400223   -5576.507280400223   25134.977922260587  -31842.944631649887    1131.459428989074 
  234000   -5514.990966991030   -5514.990966991030   25257.825606755381  -31844.987237710655    1072.170663964242 
  235000   -5580.274891647263   -5580.274891647263   25143.230768593738  -31843.401418642177    1119.895758401180 
  236000   -5513.397836609387   -5513.397836609387   25236.416473330519  -31841.269911070980    1091.455601131072 
  237000   -5517.822802173810   -5517.822802173810   25262.645614264315  -31841.004979333953    1060.536562895829 
  238000   -5532.011111991225   -5532.011111991225   25203.752429954246  -31844.168344165060    1108.404802219590 
  239000   -5546.225148028017   -5546.225148028017   25164.114456195664  -31841.815581155024    1131.475976931348 
  240000   -5504.733468087925   -5504.733468087925   25279.006410631908  -31839.566587731351    1055.826709011523 
  241000   -5573.587222639897   -5573.587222639897   25178.660405159622  -31840.853193681516    1088.605565881998 
  242000   -5543.780928481021   -5543.780928481021   25172.866183662140  -31841.675776555141    1125.028664411981 
  243000   -5515.185652558313   -5515.185652558313   25171.804468360315  -31843.834181596874    1156.844060678249 
  244000   -5534.692026053563   -5534.692026053563   25169.020684267904  -31842.064162982017    1138.351452660553 
  245000   -5469.558702460305   -5469.558702460305   25311.549782582984  -31845.024086046466    1063.915601003178 
  246000   -5484.023571125788   -5484.023571125788   25327.310691953924  -31844.227653094411    1032.893390014699 
  247000   -5514.828080045991   -5514.828080045991   25159.162947894882  -31835.641777524746    1161.650749583867 
  248000   -5534.325300826062   -5534.325300826062   25238.756418101559  -31841.724007189994    1068.642288262376 
  249000   -5589.333980266798   -5589.333980266798   25160.900359280215  -31840.553827140175    1090.319487593162 
  250000   -5584.997262793586   -5584.997262793586   25172.127720084158  -31844.132309152068    1087.007326274322 
  251000   -5599.368843838340   -5599.368843838340   25128.993017336554  -31840.944648242108    1112.582787067217 
  252000   -5561.335567240680   -5561.335567240680   25183.834295181605  -31842.085361428148    1096.915499005866 
  253000   -5548.304489788679   -5548.304489788679   25194.198360125985  -31845.650501472868    1103.147651558199 
  254000   -5555.425047708392   -5555.425047708392   25162.234204703542  -31842.227822591020    1124.568570179082 
  255000   -5582.369458912439   -5582.369458912439   25148.480770899198  -31842.954800448148    1112.104570636512 
  256000   -5565.137799167776   -5565.137799167776   25185.007719939411  -31842.780016097870    1092.634496990683 
  257000   -5515.478644915645   -5515.478644915645   25241.384855524600  -31839.643926368786    1082.780425928539 
  258000   -5496.393771188166   -5496.393771188166   25289.343675665023  -31843.998341973394    1058.260895120203 
  259000   -5516.038844379837   -5516.038844379837   25216.501594429395  -31842.376280675046    1109.835841865811 
  260000   -5510.186307649801   -5510.186307649801   25209.648873663991  -31839.787223299511    1119.952041985714 
  261000   -5541.487407301003   -5541.487407301003   25195.123212368086  -31845.267152002827    1108.656532333740 
  262000   -5575.966404214862   -5575.966404214862   25119.489164011837  -31845.166122161500    1149.710553934803 
  263000   -5565.210364147479   -5565.210364147479   25173.882222652621  -31841.750918611604    1102.658331811507 
  264000   -5572.761575708450   -5572.761575708450   25143.623193158481  -31840.593964774373    1124.209195907443 
  265000   -5510.097243222084   -5510.097243222084   25227.502431288009  -31841.162459456311    1103.562784946219 
  266000   -5558.870436759458   -5558.870436759458   25190.493376470571  -31842.529267482445    1093.165454252416 
  267000   -5553.901435729611   -5553.901435729611   25213.729359542500  -31844.676931599897    1077.046136327786 
  268000   -5523.633609302833   -5523.633609302833   25205.710903366493  -31843.786291065706    1114.441778396382 
  269000   -5527.413915441175   -5527.413915441175   25301.232660378053  -31841.731029946233    1013.084454127005 
  270000   -5540.276917655738   -5540.276917655738   25217.806148091251  -31842.192686435406    1084.109620688421 
  271000   -5560.253768262039   -5560.253768262039   25232.705373494242  -31836.723718232439    1043.764576476158 
  272000   -5588.150992529409   -5588.150992529409   25090.877030781558  -31842.619553047229    1163.591529736262 
  273000   -5552.096177324238   -5552.096177324238   25159.200600710334  -31845.193328899684    1133.896550865110 
  274000   -5539.940168768393   -5539.940168768393   25150.217393036644  -31839.699136069441    1149.541574264403 
  275000   -5490.601450998995   -5490.601450998995   25314.914626215264  -31838.993711031853    1033.477633817598 
  276000   -5527.826277777815   -5527.826277777815   25197.435638748975  -31838.692930747045    1113.431014220253 
  277000   -5567.566607036377   -5567.566607036377   25201.904598150002  -31841.838351440711    1072.367146254328 
  278000   -5513.434795431629   -5513.434795431629   25228.526842459596  -31840.925884937376    1098.964247046154 
  279000   -5508.609392470531   -5508.609392470531   25213.913842335609  -31842.045355481703    1119.522120675565 
  280000   -5563.996931902780   -5563.996931902780   25155.052761173996  -31842.139662482557    1123.089969405780 
  281000   -5561.839420990713   -5561.839420990713   25139.300925864358  -31841.502723346464    1140.362376491393 
  282000   -5494.194698214244   -5494.194698214244   25228.301583534987  -31840.471080193220    1117.974798443988 
  283000   -5583.758421827089   -5583.758421827089   25127.768251995025  -31843.627429988872    1132.100756166758 
  284000   -5546.559506154357   -5546.559506154357   25203.535758676251  -31841.923948742464    1091.828683911855 
  285000   -5507.303966209554   -5507.303966209554   25155.463570828775  -31841.383430858921    1178.615893820590 
  286000   -5628.137258920400   -5628.137258920400   25140.408814915289  -31842.564157760000    1074.018083924312 
  287000   -5605.006815173096   -5605.006815173096   25146.569901857925  -31845.087675365387    1093.510958334368 
  288000   -5596.531559397659   -5596.531559397659   25135.574280950666  -31846.291711986200    1114.185871637873 
  289000   -5544.440330230082   -5544.440330230082   25177.484520804097  -31845.541527517536    1123.616676483360 
  290000   -5513.577337696923   -5513.577337696923   25257.828091847397  -31843.095485702423    1071.690056158102 
  291000   -5586.637541934047   -5586.637541934047   25170.755398083722  -31844.568566831036    1087.175626813268 
  292000   -5537.492387205850   -5537.492387205850   25148.860764373538  -31842.815797635732    1156.462646056345 
  293000   -5536.127771908064   -5536.127771908064   25175.400659600578  -31841.992814379508    1130.464382870867 
  294000   -5490.240328587704   -5490.240328587704   25254.771267226399  -31839.949905068857    1094.938309254754 
  295000   -5530.585068844379   -5530.585068844379   25214.723735353680  -31840.921486152303    1095.612681954246 
  296000   -5537.802267484582   -5537.802267484582   25199.019725459628  -31846.150312343769    1109.328319399560 
  297000   -5499.582925836719   -5499.582925836719   25309.757988994992  -31841.837476447461    1032.496561615750 
  298000   -5545.484013096560   -5545.484013096560   25205.844947263398  -31838.401628614571    1087.072668254608 
  299000   -5567.473558531048   -5567.473558531048   25188.275103347969  -31841.822221648872    1086.073559769852 
  300000   -5576.232268444965   -5576.232268444965   25156.723447898556  -31842.601741383645    1109.646025040124 
  301000   -5502.885268250018   -5502.885268250018   25193.426840316431  -31841.085541869204    1144.773433302757 
  302000   -5499.706815789839   -5499.706815789839   25273.041217177179  -31839.178980095530    1066.430947128515 
  303000   -5547.867613284634   -5547.867613284634   25239.974835317345  -31842.544501721935    1054.702053119952 
  304000   -5469.054680752823   -5469.054680752823   25311.526953366247  -31843.817316475612    1063.235682356542 
  305000   -5502.768247459564   -5502.768247459564   25200.781725370580  -31838.190026939941    1134.640054109793 
  306000   -5578.765476051398   -5578.765476051398   25130.405498213491  -31842.672386327351    1133.501412062461 
  307000   -5560.800263181271   -5560.800263181271   25175.044974110122  -31839.078693539199    1103.233456247804 
  308000   -5516.246753052172   -5516.246753052172   25216.768918097827  -31844.324798949183    1111.309127799188 
  309000   -5528.639942873364   -5528.639942873364   25226.791889795099  -31845.581141622704    1090.149308954243 
  310000   -5492.530392043791   -5492.530392043791   25323.298599719943  -31836.000174478959    1020.171182715225 
  311000   -5508.241038336571   -5508.241038336571   25268.828457501459  -31845.750946365675    1068.681450527641 
  312000   -5545.033175750388   -5545.033175750388   25229.598662317352  -31842.117601966518    1067.485763898778 
  313000   -5521.371314809032   -5521.371314809032   25237.855035479115  -31838.882149442994    1079.655799154841 
  314000   -5485.760430349797   -5485.760430349797   25309.453092840959  -31838.609029963682    1043.395506772929 
  315000   -5573.499281353892   -5573.499281353892   25170.654225563721  -31844.359343301512    1100.205836383895 
  316000   -5511.259526595710   -5511.259526595710   25200.114348265593  -31842.171550843097    1130.797675981796 
  317000   -5500.189960956595   -5500.189960956595   25268.595789763152  -31841.821797508786    1073.036046789042 
  318000   -5595.396099849499   -5595.396099849499   25153.563556462344  -31839.037791512474    1090.078135200626 
  319000   -5535.031865039164   -5535.031865039164   25159.959085832736  -31840.578929590600    1145.587978718702 
  320000   -5535.674936532487   -5535.674936532487   25231.250236966582  -31839.695728788574    1072.770555289506 
  321000   -5536.271021169334   -5536.271021169334   25268.087065559645  -31845.763700094940    1041.405613365959 
  322000   -5474.545602954164   -5474.545602954164   25284.021507730875  -31842.093726200339    1083.526615515304 
  323000   -5524.226434370223   -5524.226434370223   25269.707871094091  -31836.924105259026    1042.989799794709 
  324000   -5524.316790297595   -5524.316790297595   25238.495802303660  -31841.404875641321    1078.592283040066 
  325000   -5517.985433474569   -5517.985433474569   25334.441750607544  -31842.688722611201     990.261538529085 
  326000   -5487.897773954595   -5487.897773954595   25320.637983820765  -31842.285579949552    1033.749822174194 
  327000   -5545.214134415353   -5545.214134415353   25238.874471590963  -31837.266753745509    1053.178147739195 
  328000   -5560.556791255989   -5560.556791255989   25212.625931064369  -31841.850845582256    1068.668123261896 
  329000   -5512.556587828811   -5512.556587828811   25236.414001400706  -31845.303600734973    1096.333011505455 
  330000   -5522.119745242497   -5522.119745242497   25224.569846948427  -31844.861180231033    1098.171588040113 
  331000   -5480.556258661079   -5480.556258661079   25305.508592927115  -31838.556429312277    1052.491577724083 
  332000   -5489.821760141764   -5489.821760141764   25293.763451340274  -31835.810805964375    1052.225594482337 
  333000   -5570.374737885828   -5570.374737885828   25134.327329754684  -31843.525992037281    1138.823924396763 
  334000   -5523.870099716903   -5523.870099716903   25204.836292905140  -31840.732000628508    1112.025608006466 
  335000   -5578.977838086779   -5578.977838086779   25156.560109749451  -31839.735006008508    1104.197058172280 
  336000   -5547.570544941016   -5547.570544941016   25244.125233065028  -31841.855207402292    1050.159429396247 
  337000   -5517.149599997563   -5517.149599997563   25263.135145739954  -31842.060206044396    1061.775460306884 
  338000   -5583.368571590407   -5583.368571590407   25137.781350016281  -31842.076531269664    1120.926609662970 
  339000   -5543.337777620174   -5543.337777620174   25247.843833782998  -31842.510403013926    1051.328791610749 
  340000   -5539.254092012477   -5539.254092012477   25177.793235386853  -31841.847078961011    1124.799751561680 
  341000   -5520.577479245214   -5520.577479245214   25188.573652047678  -31837.462579302759    1128.311448009867 
  342000   -5522.133898826811   -5522.133898826811   25220.296198794375  -31843.534246153784    1101.104148532599 
  343000   -5547.172434186105   -5547.172434186105   25213.913150081658  -31847.125342907410    1086.039758639645 
  344000   -5520.657600587969   -5520.657600587969   25274.456454655046  -31839.620587609999    1044.506532366987 
  345000   -5508.334872006391   -5508.334872006391   25269.015046611876  -31838.738084556710    1061.388165938439 
  346000   -5530.855026840272   -5530.855026840272   25219.397410805352  -31842.876559003809    1092.624121358188 
  347000   -5576.349219374337   -5576.349219374337   25162.689175108557  -31841.834351545953    1102.795957063057 
  348000   -5476.953226652346   -5476.953226652346   25271.547153235526  -31835.860627635051    1087.360247747177 
  349000   -5507.492683551638   -5507.492683551638   25289.118655836228  -31844.907263868310    1048.295924480444 
  350000   -5512.065355727333   -5512.065355727333   25235.972536656562  -31836.700605762871    1088.662713378976 
  351000   -5570.455778684394   -5570.455778684394   25211.811398339534  -31843.372959815995    1061.105782792066 
  352000   -5538.752293351445   -5538.752293351445   25206.682426046689  -31842.169197378578    1096.734477980445 
  353000   -5534.031154104916   -5534.031154104916   25168.656252156587  -31836.127383304109    1133.439977042610 
  354000   -5550.508689565519   -5550.508689565519   25249.628581194182  -31845.163349779126    1045.026079019430 
  355000   -5517.891821820805   -5517.891821820805   25204.470158648070  -31842.442407268227    1120.080426799350 
  356000   -5548.755253644060   -5548.755253644060   25174.020732723420  -31843.580658312105    1120.804671944623 
  357000   -5514.796561082552   -5514.796561082552   25231.098968389131  -31843.325386411514    1097.429856939832 
  358000   -5506.758250324292   -5506.758250324292   25170.522815387398  -31840.837101639132    1163.556035927441 
  359000   -5574.836328664307   -5574.836328664307   25219.899476362742  -31844.726645343741    1049.990840316690 
  360000   -5520.387698481729   -5520.387698481729   25225.076611595796  -31843.763583433942    1098.299273356419 
  361000   -5509.287644026452   -5509.287644026452   25287.845730314068  -31842.663091854691    1045.529717514174 
  362000   -5494.516024074619   -5494.516024074619   25266.026030456531  -31840.779901447837    1080.237846916687 
  363000   -5575.900763901685   -5575.900763901685   25195.106957778717  -31842.934773776899    1071.927052096501 
  364000   -5532.699859343851   -5532.699859343851   25160.613041309258  -31842.060105151151    1148.747204498041 
  365000   -5518.287435617447   -5518.287435617447   25247.052043098538  -31840.408469231519    1075.068990515535 
  366000   -5540.300458210368   -5540.300458210368   25209.688193169033  -31844.721079735868    1094.732428356467 
  367000   -5477.805535505886   -5477.805535505886   25290.558086952391  -31838.974499238353    1070.610876780077 
  368000   -5534.991233737615   -5534.991233737615   25207.684061206812  -31845.098810544478    1102.423515600047 
  369000   -5590.414617454899   -5590.414617454899   25059.143710209792  -31840.746844769954    1191.188517105260 
  370000   -5547.460071452460   -5547.460071452460   25217.996605014898  -31839.511253429300    1074.054576961941 
  371000   -5583.209035530970   -5583.209035530970   25139.858971199934  -31842.160395299081    1119.092388568178 
  372000   -5570.924895558368   -5570.924895558368   25087.934521075938  -31840.598692826337    1181.739276192032 
  373000   -5538.904952455381   -5538.904952455381   25182.963665631039  -31844.939325339670    1123.070707253249 
  374000   -5593.674443590327   -5593.674443590327   25188.249898256527  -31843.639652986680    1061.715311139824 
  375000   -5525.028850682851   -5525.028850682851   25226.681673229170  -31842.441713874789    1090.731189962762 
  376000   -5534.606789735470   -5534.606789735470   25207.707808887913  -31844.083661224617    1101.769062601234 
  377000   -5578.582516860464   -5578.582516860464   25215.089009560041  -31842.902983075652    1049.231456655148 
  378000   -5488.922484062288   -5488.922484062288   25269.586353975756  -31842.588788214834    1084.079950176787 
  379000   -5533.031649588316   -5533.031649588316   25234.373282521174  -31841.716250014430    1074.311317904940 
  380000   -5520.149954193941   -5520.149954193941   25236.433012036505  -31838.371303595628    1081.788337365183 
  381000   -5542.947339652048   -5542.947339652048   25147.698183768403  -31839.341775911518    1148.696252491061 
  382000   -5511.196319397310   -5511.196319397310   25199.008330528693  -31841.207721766248    1131.003071840248 
  383000   -5524.364854060303   -5524.364854060303   25240.659796388976  -31842.060946816306    1077.036296367025 
  384000   -5429.834801512141   -5429.834801512141   25398.959585929650  -31839.546181755511    1010.751794313723 
  385000   -5547.325156957577   -5547.325156957577   25181.718116532309  -31837.482443874487    1108.439170384600 
  386000   -5505.151033165832   -5505.151033165832   25286.840718170693  -31841.320904200598    1049.329152864072 
  387000   -5491.536147741703   -5491.536147741703   25303.023245117241  -31843.850623933293    1049.291231074345 
  388000   -5508.249045084303   -5508.249045084303   25273.568651216032  -31839.572246769658    1057.754550469325 
  389000   -5557.542769049047   -5557.542769049047   25227.318031757939  -31843.143114516817    1058.282313709834 
  390000   -5515.973768878408   -5515.973768878408   25191.094494316483  -31842.498297099733    1135.430033904845 
  391000   -5556.344848469191   -5556.344848469191   25196.996845973590  -31839.054921450232    1085.713227007451 
  392000   -5589.810478311399   -5589.810478311399   25143.988270374517  -31843.103060002530    1109.304311316612 
  393000   -5528.538039400941   -5528.538039400941   25200.116822259406  -31841.547159815098    1112.892298154756 
  394000   -5518.809243329550   -5518.809243329550   25194.995671330365  -31845.359621184019    1131.554706524106 
  395000   -5566.279424322132   -5566.279424322132   25205.157650047578  -31839.995059516074    1068.557985146364 
  396000   -5567.222233823893   -5567.222233823893   25222.940816157869  -31841.510870211929    1051.347820230168 
  397000   -5509.872266100127   -5509.872266100127   25228.230782764920  -31840.486122756771    1102.383073891722 
  398000   -5518.447047272042   -5518.447047272042   25280.847765404142  -31840.285079236528    1040.990266560346 
  399000   -5506.309029873551   -5506.309029873551   25260.226888720208  -31843.930219782505    1077.394301188753 
  400000   -5513.153286905264   -5513.153286905264   25201.896711236135  -31839.729406488321    1124.679408346923 
  401000   -5541.931965925498   -5541.931965925498   25194.095466723411  -31843.213696800311    1107.186264151405 
  402000   -5552.807612059762   -5552.807612059762   25183.600292118030  -31840.910718479856    1104.502814302068 
  403000   -5565.119144209533   -5565.119144209533   25209.674517614207  -31841.018480599094    1066.224818775353 
  404000   -5585.353090104854   -5585.353090104854   25160.041736364990  -31842.600322664443    1097.205496194596 
  405000   -5544.083284390774   -5544.083284390774   25147.452999623933  -31839.922994902077    1148.386710887370 
  406000   -5545.640175394343   -5545.640175394343   25157.578601023684  -31844.974369727792    1141.755593309766 
  407000   -5535.619981118314   -5535.619981118314   25246.883167017950  -31842.217601865061    1059.714453728793 
  408000   -5620.888506482748   -5620.888506482748   25180.371172280691  -31846.632698004818    1045.373019241375 
  409000   -5538.019442161421   -5538.019442161421   25200.914151380406  -31842.891676338648    1103.958082796821 
  410000   -5556.063488129988   -5556.063488129988   25156.107622556461  -31842.376175693284    1130.205065006832 
  411000   -5479.297821381824   -5479.297821381824   25302.207580469680  -31844.232812407277    1062.727410555772 
  412000   -5519.964882692886   -5519.964882692886   25195.828431454764  -31840.711040629143    1124.917726481495 
  413000   -5534.540858860997   -5534.540858860997   25212.272205126479  -31841.998432081760    1095.185368094282 
  414000   -5585.892267467741   -5585.892267467741   25139.024030035158  -31843.282388690066    1118.366091187169 
  415000   -5583.015524592862   -5583.015524592862   25144.337270686236  -31842.112798343493    1114.760003064392 
  416000   -5500.975366902498   -5500.975366902498   25267.615446555541  -31839.462502825078    1070.871689367038 
  417000   -5581.396291392692   -5581.396291392692   25221.634259680603  -31841.618032531802    1038.587481458507 
  418000   -5565.579586226253   -5565.579586226253   25199.137844428737  -31843.336965486662    1078.619534831669 
  419000   -5493.870473727333   -5493.870473727333   25178.991944073758  -31836.515509352921    1163.653091551832 
  420000   -5535.518246541567   -5535.518246541567   25184.597510423482  -31843.498634103009    1123.382877137954 
  421000   -5570.564596565440   -5570.564596565440   25164.757928192939  -31839.730483356187    1104.407958597802 
  422000   -5594.387840677638   -5594.387840677638   25138.644792991989  -31846.653206326817    1113.620572657186 
  423000   -5591.919828625141   -5591.919828625141   25155.789160287859  -31838.695883053137    1090.986894140134 
  424000   -5608.009593410487   -5608.009593410487   25064.167568144694  -31844.731501198628    1172.554339643443 
  425000   -5553.040633654749   -5553.040633654749   25213.938522065393  -31843.431660998373    1076.452505278233 
  426000   -5579.612697987239   -5579.612697987239   25177.340714895985  -31841.804701358215    1084.851288474988 
  427000   -5574.078640770644   -5574.078640770644   25097.452571612506  -31843.692468634537    1172.161256251386 
  428000   -5547.969882852169   -5547.969882852169   25214.712425230038  -31842.287934869102    1079.605626786895 
  429000   -5508.351685136131   -5508.351685136131   25283.817346585856  -31842.323176092232    1050.154144370245 
  430000   -5465.946553589845   -5465.946553589845   25356.114415444390  -31843.052369264784    1020.991400230551 
  431000   -5533.433592537342   -5533.433592537342   25204.959806526938  -31842.092787925318    1103.699388861037 
  432000   -5566.106743442386   -5566.106743442386   25193.344124461277  -31840.456173604951    1081.005305701289 
  433000   -5569.860492299904   -5569.860492299904   25160.807206224403  -31840.954265449665    1110.286566925362 
  434000   -5510.924228167529   -5510.924228167529   25250.489288189427  -31846.221199873460    1084.807683516507 
  435000   -5507.772871607598   -5507.772871607598   25217.998384201725  -31841.775377992944    1116.004122183617 
  436000   -5552.613477209154   -5552.613477209154   25182.950541488295  -31842.119178887217    1106.555160189766 
  437000   -5557.772452788278   -5557.772452788278   25211.842266943189  -31842.343210709634    1072.728490978167 
  438000   -5575.416224531389   -5575.416224531389   25169.146965477790  -31842.373130061656    1097.809940052485 
  439000   -5521.913802031660   -5521.913802031660   25262.063198725889  -31839.883785951330    1055.906785193777 
  440000   -5536.712003060486   -5536.712003060486   25252.700677225814  -31840.100900272533    1050.688219986238 
  441000   -5590.101020899649   -5590.101020899649   25185.198942347935  -31844.274446804669    1068.974483557085 
  442000   -5517.471110588147   -5517.471110588147   25228.365456718097  -31840.499980209395    1094.663412903151 
  443000   -5570.862257944915   -5570.862257944915   25214.228943564078  -31839.365052563247    1054.273851054259 
  444000   -5522.661209789745   -5522.661209789745   25247.526456789197  -31837.663598349063    1067.475931770120 
  445000   -5571.146291033423   -5571.146291033423   25193.600400516807  -31842.818533343656    1078.071841793424 
  446000   -5538.857617927890   -5538.857617927890   25143.327669162849  -31843.353550658878    1161.168263568140 
  447000   -5493.559540025628   -5493.559540025628   25294.130722662510  -31840.499185319102    1052.808922630968 
  448000   -5517.237487504946   -5517.237487504946   25247.562143544659  -31842.324752657132    1077.525121607526 
  449000   -5490.181577545820   -5490.181577545820   25299.349265511933  -31842.443426037829    1052.912582980080 
  450000   -5522.080184607974   -5522.080184607974   25270.578753370683  -31840.051043573047    1047.392105594390 
  451000   -5576.843808843954   -5576.843808843954   25107.299704621117  -31844.721278890916    1160.577765425845 
  452000   -5613.929273563426   -5613.929273563426   25083.306266400017  -31847.133535860328    1149.897995896881 
  453000   -5580.403716227815   -5580.403716227815   25159.934683863208  -31836.948104814819    1096.609704723793 
  454000   -5515.023182983168   -5515.023182983168   25287.420971141219  -31834.912406483785    1032.468252359397 
  455000   -5544.504684240070   -5544.504684240070   25217.646370991006  -31843.396050533214    1081.244995302143 
  456000   -5513.747783261424   -5513.747783261424   25216.038965454623  -31836.836421560092    1107.049672844044 
  457000   -5464.749994746715   -5464.749994746715   25244.443886371133  -31837.835082842779    1128.641201724932 
  458000   -5507.458830548036   -5507.458830548036   25267.268070057176  -31840.985335480425    1066.258434875206 
  459000   -5551.380298077558   -5551.380298077558   25216.696847379688  -31842.708757047632    1074.631611590387 
  460000   -5572.272114663778   -5572.272114663778   25141.942451780404  -31844.304154755693    1130.089588311510 
  461000   -5516.804052129555   -5516.804052129555   25191.982030462364  -31843.200265775333    1134.414183183417 
  462000   -5540.293868551624   -5540.293868551624   25225.853425247922  -31841.460291326548    1075.312997527000 
  463000   -5468.272256487151   -5468.272256487151   25214.759539085000  -31841.003849399174    1157.972053827027 
  464000   -5502.805165583814   -5502.805165583814   25273.929392101600  -31843.506656083067    1066.772098397654 
  465000   -5583.726413366086   -5583.726413366086   25142.861604873044  -31839.427221717295    1112.839203478162 
  466000   -5515.556626386438   -5515.556626386438   25288.248601310421  -31840.692619864123    1036.887392167266 
  467000   -5515.916654115044   -5515.916654115044   25209.314668681916  -31839.107974412927    1113.876651615968 
  468000   -5558.529732408315   -5558.529732408315   25178.358780908857  -31844.059612002551    1107.171098685379 
  469000   -5512.174768438734   -5512.174768438734   25205.047437137964  -31838.243135830951    1121.020930254254 
  470000   -5567.660734430483   -5567.660734430483   25133.714909564107  -31843.697664696436    1142.322020701846 
  471000   -5485.900917111601   -5485.900917111601   25249.879103340951  -31840.191415060301    1104.411394607744 
  472000   -5528.467313664976   -5528.467313664976   25241.790365285015  -31844.173704044370    1073.916025094377 
  473000   -5494.268113777827   -5494.268113777827   25258.473280409064  -31842.680559993554    1089.939165806662 
  474000   -5560.557767810740   -5560.557767810740   25169.845717430486  -31841.379895945607    1110.976410704381 
  475000   -5509.394060572413   -5509.394060572413   25225.189141345843  -31839.089808875833    1104.506606957578 
  476000   -5527.486977911998   -5527.486977911998   25201.231126330065  -31837.821601342475    1109.103497100416 
  477000   -5578.970795983911   -5578.970795983911   25155.426701843411  -31842.483944391617    1108.086446564295 
  478000   -5543.177237840344   -5543.177237840344   25162.615123551121  -31844.172549435541    1138.380188044076 
  479000   -5564.272671712195   -5564.272671712195   25160.404864780296  -31845.143253722275    1120.465717229788 
  480000   -5564.004995883159   -5564.004995883159   25130.843798603360  -31844.229033678123    1149.380239191605 
  481000   -5557.772392909934   -5557.772392909934   25116.579084676534  -31841.806736140770    1167.455258554304 
  482000   -5535.083823925619   -5535.083823925619   25176.009123554250  -31843.994202404094    1132.901254924226 
  483000   -5597.370204171195   -5597.370204171195   25053.896853567385  -31841.880989214049    1190.613931475473 
  484000   -5545.947128650037   -5545.947128650037   25315.478601265895  -31840.983510046539     979.557780130612 
  485000   -5547.268239974997   -5547.268239974997   25213.159989671385  -31841.160485799021    1080.732256152636 
  486000   -5544.873435853984   -5544.873435853984   25172.287816257303  -31838.245296331548    1121.084044220259 
  487000   -5547.296227735784   -5547.296227735784   25133.828565238699  -31838.124634611511    1156.999841637032 
  488000   -5538.194087688986   -5538.194087688986   25177.244717615009  -31843.495616455875    1128.056811151880 
  489000   -5489.605483060230   -5489.605483060230   25269.953147847442  -31841.378891403030    1081.820260495359 
  490000   -5546.872433906792   -5546.872433906792   25191.571656886590  -31842.332265393481    1103.888174600103 
  491000   -5574.444630324484   -5574.444630324484   25161.085534773018  -31842.939523172401    1107.409358074894 
  492000   -5486.880804860644   -5486.880804860644   25345.279023489093  -31843.258677732621    1011.098849382885 
  493000   -5488.006871458885   -5488.006871458885   25226.386185509640  -31838.972110726085    1124.579053757565 
  494000   -5521.095324887403   -5521.095324887403   25223.857965799325  -31841.373635532029    1096.420344845299 
  495000   -5511.091818062141   -5511.091818062141   25245.393404088813  -31843.160079174344    1086.674857023392 
  496000   -5546.679203608113   -5546.679203608113   25232.904988266306  -31842.281377169293    1062.697185294875 
  497000   -5561.091529906447   -5561.091529906447   25168.661559442524  -31844.293094434845    1114.540005085870 
  498000   -5441.274232854401   -5441.274232854401   25406.403875967771  -31841.162299970845     993.484191148676 
  499000   -5516.750656250031   -5516.750656250031   25203.629926242134  -31838.928095965482    1118.547513473319 
  500000   -5554.036947773573   -5554.036947773573   25139.230117956864  -31835.536634147593    1142.269568417155 
  501000   -5528.206811691402   -5528.206811691402   25204.726585412805  -31838.248794052291    1105.315396948085 
  502000   -5523.808929302049   -5523.808929302049   25289.931009417713  -31844.732551691381    1030.992612971618 
  503000   -5570.559942612563   -5570.559942612563   25177.917098680147  -31840.353486247277    1091.876444954564 
  504000   -5535.443497993168   -5535.443497993168   25152.573187580871  -31843.777690542345    1155.761004968308 
  505000   -5582.706290531318   -5582.706290531318   25118.941210045919  -31839.340705961728    1137.693205384485 
  506000   -5552.370317821973   -5552.370317821973   25169.903364070524  -31841.880287619682    1119.606605727185 
  507000   -5535.583867751015   -5535.583867751015   25186.212408780841  -31841.789554129155    1119.993277597296 
  508000   -5550.423467720157   -5550.423467720157   25195.429133152120  -31838.456128362159    1092.603527489880 
  509000   -5567.129484789730   -5567.129484789730   25094.603838357933  -31837.376569308311    1175.643246160651 
  510000   -5558.383110391354   -5558.383110391354   25241.545940889679  -31843.420303349514    1043.491252068484 
  511000   -5489.293644307076   -5489.293644307076   25267.516349611695  -31840.514638229735    1083.704644310963 
  512000   -5518.351961778371   -5518.351961778371   25230.630733565446  -31843.905712933847    1094.923017590032 
  513000   -5548.890130517397   -5548.890130517397   25206.855408818570  -31841.095543389736    1085.350004053775 
  514000   -5504.004087133944   -5504.004087133944   25343.458330680274  -31841.646692509232     994.184274695011 
  515000   -5538.725007697893   -5538.725007697893   25248.502003181195  -31841.850240467418    1054.623229588338 
  516000   -5522.452654735920   -5522.452654735920   25235.521447035491  -31837.724186620428    1079.750084849019 
  517000   -5601.235746415619   -5601.235746415619   25079.265795759107  -31842.744255609141    1162.242713434418 
  518000   -5500.606666587923   -5500.606666587923   25261.257700361137  -31842.121583067437    1080.257216118381 
  519000   -5506.969602569403   -5506.969602569403   25278.182977742272  -31837.453769137148    1052.301188825479 
  520000   -5522.297686397607   -5522.297686397607   25225.173301400289  -31837.119576626388    1089.648588828496 
  521000   -5533.031496267515   -5533.031496267515   25176.370466445995  -31844.347700705966    1134.945737992458 
  522000   -5573.896837312022   -5573.896837312022   25151.274034055852  -31843.650446583386    1118.479575215514 
  523000   -5492.926689450320   -5492.926689450320   25301.445243142869  -31843.018088300949    1048.646155707755 
  524000   -5562.801525616946   -5562.801525616946   25122.761755603678  -31840.433095608034    1154.869814387408 
  525000   -5542.756389446429   -5542.756389446429   25181.251650131315  -31843.079182662372    1119.071143084626 
  526000   -5482.971847252451   -5482.971847252451   25270.431469531846  -31841.796934249731    1088.393617465428 
  527000   -5535.044275145905   -5535.044275145905   25199.963628219106  -31843.294038780059    1108.286135415044 
  528000   -5511.597292620940   -5511.597292620940   25289.771123514984  -31839.483570339591    1038.115154203657 
  529000   -5498.746847187023   -5498.746847187023   25303.942343747451  -31843.284829316035    1040.595638381563 
  530000   -5542.334372192607   -5542.334372192607   25149.245983268200  -31843.963117683328    1152.382762222517 
  531000   -5493.038183940625   -5493.038183940625   25246.540070470262  -31846.763146839508    1107.184892428620 
  532000   -5553.395940401748   -5553.395940401748   25170.916278613171  -31842.193547260726    1117.881328245806 
  533000   -5530.650837100908   -5530.650837100908   25172.105446658596  -31847.083821975844    1144.327538216342 
  534000   -5523.015969207772   -5523.015969207772   25199.567946974654  -31843.433118030644    1120.849201848219 
  535000   -5575.950690079604   -5575.950690079604   25193.402783410736  -31843.938586441742    1074.585112951406 
  536000   -5556.583559898743   -5556.583559898743   25116.282440875118  -31839.629063186956    1166.763062413097 
  537000   -5511.791941254778   -5511.791941254778   25285.085869418130  -31841.492216500414    1044.614405827507 
  538000   -5486.442907286513   -5486.442907286513   25286.933017460797  -31839.111245827527    1065.735321080220 
  539000   -5488.211702978533   -5488.211702978533   25322.759878152654  -31840.805965466599    1029.834384335413 
  540000   -5531.467636980185   -5531.467636980185   25196.492533861885  -31839.614808857783    1111.654638015712 
  541000   -5530.836684035352   -5530.836684035352   25186.119978790746  -31842.378937978741    1125.422275152644 
  542000   -5564.865835933397   -5564.865835933397   25098.825219611557  -31838.302227715027    1174.611172170070 
  543000   -5505.565847658188   -5505.565847658188   25245.692409427167  -31838.675010963452    1087.416753878097 
  544000   -5531.423543597091   -5531.423543597091   25268.841623247965  -31842.147622144446    1041.882455299391 
  545000   -5576.352510642508   -5576.352510642508   25082.713537149957  -31844.918059368261    1185.852011575796 
  546000   -5539.597086458984   -5539.597086458984   25200.868453260453  -31842.887489270262    1102.421949550825 
  547000   -5552.595896206163   -5552.595896206163   25232.792174056111  -31843.685629542466    1058.297559280194 
  548000   -5481.463878304960   -5481.463878304960   25317.350228253003  -31840.625147869749    1041.811041311785 
  549000   -5556.548885059387   -5556.548885059387   25219.576497402817  -31842.953052641857    1066.827670179650 
  550000   -5532.463055178196   -5532.463055178196   25229.603821769582  -31842.629030104850    1080.562153157073 
  551000   -5452.793635342259   -5452.793635342259   25317.837660549292  -31838.688337920790    1068.057042029235 
  552000   -5468.043159198882   -5468.043159198882   25377.131518778559  -31843.356003004050     998.181325026610 
  553000   -5501.199638738450   -5501.199638738450   25276.434699621714  -31839.830686716938    1062.196348356769 
  554000   -5493.106171986179   -5493.106171986179   25234.942724461460  -31844.700968721023    1116.652072273382 
  555000   -5508.702270287751   -5508.702270287751   25228.552092447368  -31841.755031947039    1104.500669211916 
  556000   -5510.807715840721   -5510.807715840721   25231.473830867850  -31842.729675063736    1100.448128355169 
  557000   -5561.689193285514   -5561.689193285514   25215.594117272489  -31843.874460034087    1066.591149476081 
  558000   -5511.122591976236   -5511.122591976236   25217.079187277912  -31844.001068223391    1115.799288969242 
  559000   -5505.552554826754   -5505.552554826754   25163.514388788033  -31844.873986123705    1175.807042508916 
  560000   -5538.123131156084   -5538.123131156084   25207.853991135184  -31841.343036220838    1095.365913929570 
  561000   -5488.670719439164   -5488.670719439164   25308.670316714401  -31844.914817861558    1047.573781707985 
  562000   -5544.804200729996   -5544.804200729996   25246.199809114260  -31843.764355165291    1052.760345321034 
  563000   -5544.760409405437   -5544.760409405437   25227.798530583012  -31844.470139237754    1071.911199249303 
  564000   -5531.468248016452   -5531.468248016452   25161.528747160410  -31839.907497699289    1146.910502522420 
  565000   -5439.602589474842   -5439.602589474842   25309.379058245278  -31838.167637124137    1089.185989404019 
  566000   -5504.572415973151   -5504.572415973151   25253.139855271722  -31841.734579023039    1084.022307778165 
  567000   -5541.750100093024   -5541.750100093024   25179.009179519438  -31839.217533971863    1118.458254359403 
  568000   -5613.496186733708   -5613.496186733708   25134.643429405503  -31846.023267502784    1097.883651363568 
  569000   -5481.257189748318   -5481.257189748318   25271.899440269885  -31838.055374478707    1084.898744460506 
  570000   -5469.868704355242   -5469.868704355242   25274.887510329772  -31839.322273177342    1094.566058492323 
  571000   -5526.548634642655   -5526.548634642655   25163.578192307104  -31842.055849977827    1151.929023028065 
  572000   -5528.514862480104   -5528.514862480104   25202.589460184026  -31844.132885664727    1113.028563000592 
  573000   -5544.920420517661   -5544.920420517661   25105.144863319918  -31837.549052633458    1187.483768795881 
  574000   -5534.628716354306   -5534.628716354306   25218.257225926598  -31837.796581436673    1084.910639155763 
  575000   -5535.761610660069   -5535.761610660069   25188.901161707450  -31845.434851279086    1120.772078911571 
  576000   -5501.346911319895   -5501.346911319895   25255.258036741743  -31845.100843820281    1088.495895758645 
  577000   -5526.279683647797   -5526.279683647797   25277.138470805585  -31844.655002466137    1041.236848012758 
  578000   -5495.928986944149   -5495.928986944149   25228.559593741928  -31843.230799137604    1118.742218451527 
  579000   -5517.710281661388   -5517.710281661388   25240.521561101159  -31841.337096475709    1083.105253713163 
  580000   -5550.754211607713   -5550.754211607713   25136.663969591122  -31842.916769262807    1155.498588063974 
  581000   -5572.768381958966   -5572.768381958966   25159.024257817240  -31841.306429704404    1109.513789928194 
  582000   -5525.458536178325   -5525.458536178325   25200.362413809573  -31844.228155395554    1118.407205407659 
  583000   -5578.671848431124   -5578.671848431124   25203.266114141948  -31842.585636353488    1060.647673780416 
  584000   -5491.843154145001   -5491.843154145001   25289.554309414558  -31840.466840964276    1059.069377404719 
  585000   -5535.650066911072   -5535.650066911072   25152.370212303395  -31839.719590703451    1151.699311488984 
  586000   -5594.658860900327   -5594.658860900327   25030.297227648844  -31842.378654593460    1217.422566044288 
  587000   -5650.505918886101   -5650.505918886101   25054.209851157175  -31838.225120386564    1133.509350343287 
  588000   -5519.265473558582   -5519.265473558582   25244.973537709782  -31839.373667383636    1075.134656115276 
  589000   -5570.261466387128   -5570.261466387128   25150.861941998526  -31841.066683689474    1119.943275303825 
  590000   -5488.734196108242   -5488.734196108242   25317.880709044104  -31843.408893192725    1036.793988040383 
  591000   -5509.201422542832   -5509.201422542832   25300.971830040988  -31845.121756142409    1034.948503558590 
  592000   -5521.080059496777   -5521.080059496777   25194.745694101366  -31842.906950648754    1127.081197050606 
  593000   -5479.961149947321   -5479.961149947321   25294.548114754110  -31840.408467613928    1065.899202912498 
  594000   -5516.216088859648   -5516.216088859648   25215.629562456677  -31839.949307134320    1108.103655817994 
  595000   -5497.837962952301   -5497.837962952301   25267.343211157458  -31842.337946398751    1077.156772288991 
  596000   -5503.624804254614   -5503.624804254614   25234.787979579851  -31840.091081022034    1101.678297187572 
  597000   -5494.597292622315   -5494.597292622315   25326.105080663379  -31841.384759721950    1020.682386436258 
  598000   -5546.707463402672   -5546.707463402672   25124.072059396560  -31844.018577606133    1173.239054806904 
  599000   -5443.845279984653   -5443.845279984653   25346.501406286428  -31839.040364384338    1048.693678113257 
  600000   -5582.913897208269   -5582.913897208269   25066.769742675697  -31843.371976113722    1193.688336229754 
  601000   -5543.844341995606   -5543.844341995606   25266.378295912476  -31846.156408474493    1035.933770566410 
  602000   -5546.954547414352   -5546.954547414352   25224.454202636920  -31843.995478559704    1072.586728508433 
  603000   -5506.422847525533   -5506.422847525533   25318.244129510080  -31844.734282823603    1020.067305787994 
  604000   -5514.529517921645   -5514.529517921645   25237.350181013106  -31843.890812466507    1092.011113531754 
  605000   -5532.304173731038   -5532.304173731038   25201.163967686916  -31845.798079469005    1112.329938051049 
  606000   -5502.179534035819   -5502.179534035819   25264.343677293742  -31842.990208859224    1076.466997529663 
  607000   -5538.384502318782   -5538.384502318782   25178.574927943795  -31838.168414597007    1121.208984334427 
  608000   -5545.230879888466   -5545.230879888466   25240.166502367625  -31843.107273970378    1057.709891714281 
  609000   -5527.479323120268   -5527.479323120268   25243.047066087121  -31839.224211380246    1068.697822172856 
  610000   -5502.024411048664   -5502.024411048664   25276.305721097942  -31840.091637174140    1061.761505027532 
  611000   -5520.936534170192   -5520.936534170192   25215.166422185561  -31840.628707178319    1104.525750822564 
  612000   -5552.259206721657   -5552.259206721657   25243.964228521676  -31846.175377515330    1049.951942271997 
  613000   -5499.183048458395   -5499.183048458395   25291.684372631418  -31841.936627732361    1051.069206642546 
  614000   -5571.417016446816   -5571.417016446816   25222.665566055999  -31843.407762689156    1049.325180186341 
  615000   -5586.183503130684   -5586.183503130684   25114.310496530394  -31841.390765708238    1140.896766047162 
  616000   -5570.971137600343   -5570.971137600343   25169.590636582459  -31841.153147276411    1100.591373093606 
  617000   -5505.853359257591   -5505.853359257591   25245.082404910656  -31843.896066451751    1092.960302283504 
  618000   -5538.098677483733   -5538.098677483733   25155.885840845669  -31841.554637671088    1147.570119341683 
  619000   -5513.130849043959   -5513.130849043959   25206.990709443806  -31839.784195128574    1119.662636640806 
  620000   -5532.819828395252   -5532.819828395252   25157.477287726117  -31842.995689315099    1152.698573193729 
  621000   -5511.522168679046   -5511.522168679046   25278.389000821444  -31845.331608170753    1055.420438670262 
  622000   -5501.202729374720   -5501.202729374720   25290.815967670736  -31842.842599239379    1050.823902193921 
  623000   -5521.428326470712   -5521.428326470712   25284.088872102609  -31839.283181532173    1033.765982958853 
  624000   -5564.583766576721   -5564.583766576721   25149.681088076206  -31839.780449468963    1125.515594816034 
  625000   -5547.973275389752   -5547.973275389752   25209.852913636474  -31838.783621909577    1080.957432883346 
  626000   -5476.566169058162   -5476.566169058162   25250.883057177947  -31837.928039998555    1110.478813762447 
  627000   -5541.939289422975   -5541.939289422975   25206.421636896033  -31843.672849225193    1095.311922906184 
  628000   -5559.847221154887   -5559.847221154887   25199.241034247381  -31840.371848270981    1081.283592868716 
  629000   -5514.382865773823   -5514.382865773823   25300.392895440062  -31842.196700459830    1027.420939245944 
  630000   -5517.931407472006   -5517.931407472006   25260.879423939510  -31838.086421701657    1059.275590290141 
  631000   -5566.203366461974   -5566.203366461974   25126.858632568474  -31842.517778512374    1149.455779481927 
  632000   -5541.968102862113   -5541.968102862113   25196.204524487297  -31842.830777446336    1104.658150096924 
  633000   -5528.457417341455   -5528.457417341455   25266.247953587372  -31841.378329513242    1046.672958584416 
  634000   -5547.735913541441   -5547.735913541441   25229.865782241606  -31843.285895866571    1065.684200083527 
  635000   -5591.101383799123   -5591.101383799123   25111.373357830646  -31844.578775817277    1142.104034187512 
  636000   -5539.850203440343   -5539.850203440343   25151.961997808685  -31841.176366007210    1149.364164758179 
  637000   -5511.911704176768   -5511.911704176768   25189.654888919660  -31842.699678806312    1141.133085709882 
  638000   -5512.740517435017   -5512.740517435017   25226.955612848778  -31843.800095223425    1104.103964939630 
  639000   -5530.518840727207   -5530.518840727207   25176.567386624109  -31841.848033208502    1134.761805857182 
  640000   -5534.656860485098   -5534.656860485098   25227.770788286907  -31840.183934581913    1077.756285809912 
  641000   -5552.761621633876   -5552.761621633876   25206.449464285070  -31841.629855847958    1082.418769929015 
  642000   -5493.297481747097   -5493.297481747097   25284.816735016306  -31841.196291722681    1063.082074959279 
  643000   -5510.787980548354   -5510.787980548354   25255.702964183110  -31839.330271943028    1072.839327211562 
  644000   -5547.368974965204   -5547.368974965204   25267.110803976571  -31841.879144176564    1027.399365234790 
  645000   -5558.618800169603   -5558.618800169603   25184.516871208332  -31841.937974858589    1098.802303480657 
  646000   -5494.810126406846   -5494.810126406846   25247.589916412646  -31833.510500785902    1091.110457966412 
  647000   -5540.167590652742   -5540.167590652742   25140.313113366985  -31844.903319410743    1164.422615391016 
  648000   -5533.339665695010   -5533.339665695010   25239.409573142664  -31836.264319725982    1063.515080888307 
  649000   -5544.141163653090   -5544.141163653090   25182.549702410121  -31843.347753140493    1116.656887077282 
  650000   -5469.613381897791   -5469.613381897791   25286.890443342811  -31840.820130049586    1084.316304808990 
  651000   -5525.924298385773   -5525.924298385773   25248.439855444547  -31845.016149381168    1070.651995550849 
  652000   -5521.212634928179   -5521.212634928179   25255.874849545060  -31842.573155112401    1065.485670639160 
  653000   -5484.261204380833   -5484.261204380833   25288.112239223425  -31841.860819955669    1069.487376351411 
  654000   -5531.308692757673   -5531.308692757673   25237.344289881199  -31844.249760340259    1075.596777701381 
  655000   -5514.800613650317   -5514.800613650317   25199.252195948535  -31844.068801031608    1130.015991432756 
  656000   -5492.922444898839   -5492.922444898839   25330.367061128050  -31840.278999556991    1016.989493530101 
  657000   -5481.112155109837   -5481.112155109837   25290.712787813460  -31839.896513395433    1068.071570472136 
  658000   -5468.051810440316   -5468.051810440316   25288.986266141615  -31842.007573127757    1084.969496545824 
  659000   -5538.701271957263   -5538.701271957263   25273.344220596377  -31842.653304461943    1030.607811908299 
  660000   -5510.115461119280   -5510.115461119280   25299.359870944798  -31842.077058026149    1032.601725962068 
  661000   -5587.070953227500   -5587.070953227500   25122.521005137554  -31841.555089109886    1131.963130744831 
  662000   -5553.967422272101   -5553.967422272101   25199.267498805246  -31842.370906624543    1089.135985547197 
  663000   -5579.714735139929   -5579.714735139929   25146.761533477136  -31844.050593409582    1117.574324792517 
  664000   -5525.687561369865   -5525.687561369865   25211.063664024681  -31841.336238182637    1104.585012788089 
  665000   -5546.726235912422   -5546.726235912422   25190.365464099166  -31840.196065545799    1103.104365534214 
  666000   -5520.747443808930   -5520.747443808930   25265.613293282346  -31843.053869466432    1056.693132375156 
  667000   -5511.935715862608   -5511.935715862608   25247.106676516632  -31840.551744178185    1081.509351798946 
  668000   -5540.672420769512   -5540.672420769512   25281.987722140439  -31837.943296299414    1015.283153389463 
  669000   -5480.564576416546   -5480.564576416546   25282.857150285585  -31840.623204199648    1077.201477497520 
  670000   -5546.485892819448   -5546.485892819448   25218.962780691127  -31842.402057181509    1076.953383670935 
  671000   -5582.562705331333   -5582.562705331333   25122.621763879830  -31843.239529086863    1138.055059875698 
  672000   -5529.720331701006   -5529.720331701006   25215.524173628284  -31839.001229187947    1093.756723858663 
  673000   -5513.047616081436   -5513.047616081436   25218.464879299834  -31839.299999497234    1107.787504115960 
  674000   -5496.091083452022   -5496.091083452022   25306.937043314108  -31845.628705548508    1042.600578782383 
  675000   -5491.752197768445   -5491.752197768445   25321.535472549360  -31844.802669170127    1031.514998852326 
[...]
 4838000   -5525.109034695608   -5525.109034695608   24968.294604727744  -31634.576088186277    1141.172448762924 
 4839000   -5456.438764676102   -5456.438764676102   25077.353400094002  -31634.389582782198    1100.597418012095 
 4840000   -5526.631224274650   -5526.631224274650   25058.501700055505  -31637.217778608741    1052.084854278585 
 4841000   -5547.059195529338   -5547.059195529338   25017.166059468491  -31639.200142239461    1074.974887241629 
 4842000   -5550.840167622740   -5550.840167622740   24995.296564569784  -31640.810581728711    1094.673849536187 
 4843000   -5523.791346850936   -5523.791346850936   24995.671306911041  -31638.285198919737    1118.822545157759 
 4844000   -5514.501867800489   -5514.501867800489   25087.360441918496  -31639.296642646008    1037.434332927026 
 4845000   -5510.542663869233   -5510.542663869233   25062.874894365155  -31638.936782808036    1065.519224573650 
 4846000   -5510.437793222067   -5510.437793222067   25021.545684947851  -31636.502385102460    1104.518906932542 
 4847000   -5514.150037634368   -5514.150037634368   24948.614943148546  -31639.464751801977    1176.699771019065 
 4848000   -5472.628905414927   -5472.628905414927   25110.446746346188  -31638.546019984682    1055.470368223572 
 4849000   -5573.980416686769   -5573.980416686769   24958.732290617150  -31636.973112477561    1104.260405173639 
 4850000   -5555.054649389083   -5555.054649389083   25021.601341964881  -31641.516667231514    1064.860675877547 
 4851000   -5482.482130687324   -5482.482130687324   25049.408049522222  -31633.915089983802    1102.024909774257 
 4852000   -5553.288414865423   -5553.288414865423   24992.940092722463  -31634.508073783883    1088.279566195995 
 4853000   -5530.241074868867   -5530.241074868867   25020.094505180685  -31634.824118163688    1084.488538114141 
 4854000   -5534.615527515001   -5534.615527515001   24966.021433526475  -31638.463436975002    1137.826475933521 
 4855000   -5564.455734857031   -5564.455734857031   24949.538535602602  -31640.328730658148    1126.334460198514 
 4856000   -5523.574442199395   -5523.574442199395   25037.965785935070  -31637.983699015378    1076.443470880915 
 4857000   -5544.134623936738   -5544.134623936738   25052.440284554119  -31634.271188208917    1037.696279718059 
 4858000   -5544.196710287084   -5544.196710287084   24976.557231246334  -31638.953547217614    1118.199605684199 
 4859000   -5534.881799010764   -5534.881799010764   25055.090498796526  -31636.657595579636    1046.685297772352 
 4860000   -5443.558933630156   -5443.558933630156   25062.148393866981  -31635.930714620761    1130.223387123622 
 4861000   -5560.008353278732   -5560.008353278732   24935.005609802392  -31633.918880059817    1138.904916978692 
 4862000   -5522.466996394276   -5522.466996394276   25032.739760907090  -31636.185700121834    1080.978942820469 
 4863000   -5522.326583634753   -5522.326583634753   25033.104892170846  -31638.459777360546    1083.028301554943 
 4864000   -5564.091014808651   -5564.091014808651   24989.181985586387  -31638.186698347137    1084.913697952098 
 4865000   -5494.901876888478   -5494.901876888478   25080.445274694921  -31636.672810438562    1061.325658855161 
 4866000   -5506.556275515311   -5506.556275515311   25069.790579784509  -31635.699036355527    1059.352181055701 
 4867000   -5581.831349284515   -5581.831349284515   24961.597044233633  -31636.758491503329    1093.330097985182 
 4868000   -5578.795912676254   -5578.795912676254   24890.123299098861  -31641.298261953667    1172.379050178553 
 4869000   -5538.390120998170   -5538.390120998170   25022.530283326971  -31639.525883158469    1078.605478833326 
 4870000   -5511.331459599875   -5511.331459599875   25024.952656304966  -31633.612436672291    1097.328320767452 
 4871000   -5553.952372048527   -5553.952372048527   24969.716915312914  -31637.563738787114    1113.894451425668 
 4872000   -5575.148745716531   -5575.148745716531   24929.426353794224  -31639.947724267833    1135.372624757079 
 4873000   -5525.911336503170   -5525.911336503170   25058.125871315355  -31632.839605847450    1048.802398028926 
 4874000   -5505.317503885977   -5505.317503885977   25115.748468218746  -31637.115065990005    1016.049093885282 
 4875000   -5517.757184526276   -5517.757184526276   25042.295142523708  -31637.663437668696    1077.611110618710 
 4876000   -5507.504945065579   -5507.504945065579   25041.074189746389  -31637.272683025978    1088.693548214012 
 4877000   -5504.539671604074   -5504.539671604074   25096.131617792111  -31637.931798066395    1037.260508670206 
 4878000   -5532.256385414181   -5532.256385414181   25068.773484291771  -31639.550267725619    1038.520398019666 
 4879000   -5581.152840499271   -5581.152840499271   24945.875544657400  -31640.002164298890    1112.973779142217 
 4880000   -5563.581574378753   -5563.581574378753   25022.881381049050  -31637.959596832079    1051.496641404276 
 4881000   -5558.144296474613   -5558.144296474613   24923.592744963491  -31630.836511916914    1149.099470478804 
 4882000   -5540.009845805678   -5540.009845805678   25009.308259377820  -31641.108969811208    1091.790864627714 
 4883000   -5555.839804001149   -5555.839804001149   25014.074506779394  -31636.898606965235    1066.984296184696 
 4884000   -5572.722859426984   -5572.722859426984   24892.834095413251  -31637.248613906289    1171.691659066061 
 4885000   -5564.472517758168   -5564.472517758168   25027.984480488438  -31642.099063328027    1049.642065081421 
 4886000   -5468.248421874767   -5468.248421874767   25064.434441787373  -31637.830109753577    1105.147246091429 
 4887000   -5532.165852450085   -5532.165852450085   24992.533767058107  -31636.924380779939    1112.224761271753 
 4888000   -5509.419415194890   -5509.419415194890   25052.859443354850  -31637.833802501264    1075.554943951525 
 4889000   -5507.733822734950   -5507.733822734950   25082.205217156094  -31637.055871185821    1047.116831294780 
 4890000   -5570.246092445363   -5570.246092445363   24904.102051191036  -31639.104471779916    1164.756328143515 
 4891000   -5573.624212305182   -5573.624212305182   24889.888063845345  -31637.545308240642    1174.033032090116 
 4892000   -5510.970111408838   -5510.970111408838   25013.394027886028  -31639.093055807854    1114.728916512986 
 4893000   -5525.780688976316   -5525.780688976316   25015.516668891345  -31640.152338283217    1098.854980415558 
 4894000   -5575.310157026099   -5575.310157026099   24955.127888749892  -31637.513113130972    1107.075067354979 
 4895000   -5566.858567779727   -5566.858567779727   24996.873216080487  -31637.297903058636    1073.566119198427 
 4896000   -5561.326819026199   -5561.326819026199   24954.166697206791  -31637.049527310406    1121.556011077416 
 4897000   -5567.032876410471   -5567.032876410471   24985.970530552404  -31636.520343342134    1083.516936379255 
 4898000   -5448.046432002888   -5448.046432002888   25128.001054468521  -31633.038522909530    1056.991036438118 
 4899000   -5529.649839747290   -5529.649839747290   24922.104555893937  -31636.504271815131    1184.749876173900 
 4900000   -5515.359428927673   -5515.359428927673   24947.759303196854  -31634.776323120426    1171.657590995897 
 4901000   -5502.888224117418   -5502.888224117418   25079.530908118315  -31636.693121146127    1054.273988910391 
 4902000   -5502.388042102579   -5502.388042102579   25103.730834162077  -31637.985784270026    1031.866908005374 
 4903000   -5516.512075845454   -5516.512075845454   25032.758625063707  -31633.391059758193    1084.120358849033 
 4904000   -5565.743180782069   -5565.743180782069   24916.913538797970  -31638.455775416489    1155.799055836451 
 4905000   -5558.265096993640   -5558.265096993640   24947.717211695322  -31640.924974512880    1134.942665823923 
 4906000   -5586.246991156520   -5586.246991156520   24903.540556868909  -31635.674107718878    1145.886559693450 
 4907000   -5560.604893396343   -5560.604893396343   25030.524341347173  -31639.697090009489    1048.567855265975 
 4908000   -5570.716742668999   -5570.716742668999   24987.675372830716  -31640.469351816562    1082.077236316845 
 4909000   -5565.195106849169   -5565.195106849169   24912.616958827195  -31637.094554259013    1159.282488582642 
 4910000   -5571.510413905380   -5571.510413905380   24991.932803454878  -31634.868562590920    1071.425345230666 
 4911000   -5495.845137714790   -5495.845137714790   25121.707684712066  -31636.124052258958    1018.571229832101 
 4912000   -5622.138040845941   -5622.138040845941   24920.922631921698  -31636.036565926843    1092.975893159208 
 4913000   -5536.567215872859   -5536.567215872859   25033.234853401344  -31639.230834421458    1069.428765147253 
 4914000   -5521.675142803702   -5521.675142803702   25097.183190856547  -31636.066901052676    1017.208567392425 
 4915000   -5577.572970382222   -5577.572970382222   24929.177341184528  -31638.355707743376    1131.605396176627 
 4916000   -5526.552537034822   -5526.552537034822   24995.832929947148  -31636.263876664769    1113.878409682797 
 4917000   -5565.733251139365   -5565.733251139365   24997.400268917620  -31636.778374082038    1073.644854025059 
 4918000   -5456.246136307796   -5456.246136307796   25084.063704477550  -31637.655748134119    1097.345907348776 
 4919000   -5497.849725725860   -5497.849725725860   25059.364174507580  -31635.425884593169    1078.211984359729 
 4920000   -5563.945284907008   -5563.945284907008   24990.093738218529  -31635.875253889462    1081.836230763921 
 4921000   -5578.019471296477   -5578.019471296477   24953.772190348609  -31640.100447568537    1108.308785923447 
 4922000   -5542.108906062571   -5542.108906062571   24998.125403913422  -31636.276320283152    1096.042010307159 
 4923000   -5537.732754376208   -5537.732754376208   24996.359130599569  -31637.798846278798    1103.706961303021 
 4924000   -5546.181803450825   -5546.181803450825   24897.013361003272  -31638.467428018004    1195.272263563905 
 4925000   -5511.445057277302   -5511.445057277302   25016.807743209552  -31637.714824357325    1109.462023870467 
 4926000   -5528.816854496454   -5528.816854496454   25029.028407554564  -31638.636516121307    1080.791254070285 
 4927000   -5540.615345246406   -5540.615345246406   25001.983734209160  -31629.733926181085    1087.134846725518 
 4928000   -5531.100213485242   -5531.100213485242   24990.039835868251  -31637.268917827747    1116.128868474259 
 4929000   -5527.506220976535   -5527.506220976535   25073.737858957043  -31637.532660987465    1036.288581053885 
 4930000   -5470.705889188535   -5470.705889188535   25095.872326833054  -31638.091729310680    1071.513513289090 
 4931000   -5525.027548369661   -5525.027548369661   25012.557994478797  -31635.844581914425    1098.259039065963 
 4932000   -5560.860763050056   -5560.860763050056   25011.734357844434  -31636.114109422779    1063.518988528291 
 4933000   -5571.837743781220   -5571.837743781220   24894.448009693118  -31638.433594424285    1172.147840949942 
 4934000   -5582.150378544251   -5582.150378544251   24946.421828685885  -31635.649891512810    1107.077684282678 
 4935000   -5563.857251077090   -5563.857251077090   25029.318474776454  -31640.449484619963    1047.273758766419 
 4936000   -5513.080291900158   -5513.080291900158   24977.987036067359  -31633.955383766297    1142.888055798776 
 4937000   -5549.991498674503   -5549.991498674503   24922.701735989154  -31639.516075494586    1166.822840830930 
 4938000   -5570.687040498411   -5570.687040498411   24964.911585075286  -31639.432482986576    1103.833857412882 
 4939000   -5556.590208702873   -5556.590208702873   24973.539240311082  -31636.625747074842    1106.496298060887 
 4940000   -5502.802018675375   -5502.802018675375   25090.977376924751  -31631.335353454491    1037.555957854367 
 4941000   -5531.727014015243   -5531.727014015243   24905.915360574694  -31639.721205280188    1202.078830690250 
 4942000   -5520.872722786477   -5520.872722786477   25004.833282841537  -31634.407735096313    1108.701729468296 
 4943000   -5503.208212392583   -5503.208212392583   25052.286874939186  -31636.968380610429    1081.473293278660 
 4944000   -5488.217062054166   -5488.217062054166   25093.199427425570  -31633.441382119861    1052.024892640125 
 4945000   -5514.925077405987   -5514.925077405987   25005.338281240540  -31636.558421133272    1116.295062486743 
 4946000   -5495.932975571901   -5495.932975571901   25087.335118942625  -31633.517073331295    1050.248978816771 
 4947000   -5441.666327824019   -5441.666327824019   25159.169510111868  -31631.373770997950    1030.537933062065 
 4948000   -5479.833515872509   -5479.833515872509   25097.528870305912  -31634.247053911819    1056.884667733392 
 4949000   -5500.233058694506   -5500.233058694506   25127.336794566450  -31637.754432091744    1010.184578830789 
 4950000   -5480.374599842758   -5480.374599842758   25110.793739513225  -31638.204199290562    1047.035859934573 
 4951000   -5511.857110161691   -5511.857110161691   25097.587983283443  -31636.056824674903    1026.611731229768 
 4952000   -5488.058841778500   -5488.058841778500   25045.087705890110  -31633.064349797150    1099.917802128541 
 4953000   -5508.677996688075   -5508.677996688075   24987.516312792795  -31635.455371824213    1139.261062343348 
 4954000   -5525.141926821922   -5525.141926821922   25017.084775631356  -31636.606368402627    1094.379665949351 
 4955000   -5502.184609920478   -5502.184609920478   25005.399494999794  -31633.139053211911    1125.554948291642 
 4956000   -5466.409937886943   -5466.409937886943   25113.049875575853  -31633.915679062997    1054.455865600198 
 4957000   -5529.134030632857   -5529.134030632857   25037.954547248864  -31637.016399347143    1069.927821465423 
 4958000   -5533.095393138374   -5533.095393138374   25042.863977369805  -31637.711636057498    1061.752265549319 
 4959000   -5571.016442168566   -5571.016442168566   24924.407822376113  -31636.327166336585    1140.902901791902 
 4960000   -5565.290762915050   -5565.290762915050   24993.446245111449  -31635.509589215679    1076.772581189179 
 4961000   -5564.821575149850   -5564.821575149850   24972.349125669847  -31638.439597259621    1101.268896439919 
 4962000   -5526.026064050060   -5526.026064050060   25069.765227554668  -31634.771921757045    1038.980630152313 
 4963000   -5505.346731596801   -5505.346731596801   25063.002884270580  -31638.702147384738    1070.352531517361 
 4964000   -5484.019495838245   -5484.019495838245   25051.945119179771  -31637.881528990696    1101.916913972680 
 4965000   -5529.359033476401   -5529.359033476401   25068.810412978903  -31637.510796447896    1039.341349992596 
 4966000   -5566.956406216734   -5566.956406216734   24908.456782626788  -31638.314335282172    1162.901146438646 
 4967000   -5539.050981216158   -5539.050981216158   24978.218948690243  -31637.919534760371    1120.649604853971 
 4968000   -5575.997549748696   -5575.997549748696   24943.480600291918  -31637.388809025142    1117.910658984528 
 4969000   -5537.901743119917   -5537.901743119917   25058.253928234590  -31631.870777099335    1035.715105744825 
 4970000   -5558.104444523527   -5558.104444523527   24985.610740729480  -31636.432584805636    1092.717399552631 
 4971000   -5529.221775470494   -5529.221775470494   24899.765065883490  -31634.350944045495    1205.364102691507 
 4972000   -5498.484471769185   -5498.484471769185   24996.409857230377  -31639.298803848804    1144.404474849241 
 4973000   -5517.913886784383   -5517.913886784383   25056.445355565222  -31638.877901159158    1064.518658809552 
 4974000   -5518.865821528711   -5518.865821528711   25023.375754274282  -31642.002425905051    1099.760850102057 
 4975000   -5617.492806104910   -5617.492806104910   24936.732941080078  -31637.104657452048    1082.878910267058 
 4976000   -5587.242974884346   -5587.242974884346   24923.178838423293  -31635.751598188232    1125.329784880591 
 4977000   -5494.487907367013   -5494.487907367013   25023.631765668862  -31633.299454044434    1115.179781008559 
 4978000   -5508.041888824682   -5508.041888824682   25073.526647653365  -31635.372984986079    1053.804448508032 
 4979000   -5572.366628057738   -5572.366628057738   25002.413808953748  -31639.075490763622    1064.295053752136 
 4980000   -5521.292612924342   -5521.292612924342   25122.029143840518  -31637.618159551101     994.296402786241 
 4981000   -5488.714766488782   -5488.714766488782   25052.252496948295  -31632.273170432374    1091.305906995301 
 4982000   -5587.772458589523   -5587.772458589523   24966.861760787353  -31639.311363202858    1084.677143825983 
 4983000   -5581.341275545063   -5581.341275545063   24937.726035821455  -31637.711345927677    1118.644034561157 
 4984000   -5598.056110253889   -5598.056110253889   24945.192471810267  -31639.524957457284    1096.276375393130 
 4985000   -5470.530536033271   -5470.530536033271   25058.162392493814  -31636.182828205987    1107.489899678902 
 4986000   -5546.236541138805   -5546.236541138805   25049.882875224786  -31635.966627245925    1039.847210882336 
 4987000   -5525.987129994795   -5525.987129994795   25028.845903512418  -31637.496051949372    1082.663018442160 
 4988000   -5551.240974713350   -5551.240974713350   24992.522648419563  -31636.160841400830    1092.397218267917 
 4989000   -5595.923754430576   -5595.923754430576   24905.194153858276  -31638.145382990271    1137.027474701420 
 4990000   -5503.700190558629   -5503.700190558629   24988.770160583299  -31633.414318296724    1140.943967154800 
 4991000   -5482.137352374099   -5482.137352374099   25155.979277411279  -31630.837784539694     992.721154754312 
 4992000   -5538.146538143956   -5538.146538143956   24948.225840376152  -31633.609627096310    1147.237248576204 
 4993000   -5550.594629471794   -5550.594629471794   24880.885398334991  -31639.989567587851    1208.509539781066 
 4994000   -5542.805914194734   -5542.805914194734   25044.369332625301  -31641.062212257468    1053.886965437434 
 4995000   -5511.131940129806   -5511.131940129806   25074.446352553288  -31638.372394565085    1052.794101881989 
 4996000   -5538.831837423342   -5538.831837423342   25050.482744805755  -31640.395982070095    1051.081399840994 
 4997000   -5576.648037777504   -5576.648037777504   24919.488678931368  -31636.188416458954    1140.051699750079 
 4998000   -5533.868401643023   -5533.868401643023   25028.764184519518  -31634.995686960337    1072.363100797797 
 4999000   -5540.909155121095   -5540.909155121095   25011.642770736784  -31635.988513743396    1083.436587885517 
 5000000   -5575.048701585794   -5575.048701585794   24969.211069024695  -31634.009333314363    1089.749562703878 
Loop time of 30.0263 on 8 procs for 5001 steps with 1503 atoms

Performance: 14.390 ns/day, 1.668 hours/ns, 166.554 timesteps/s
98.8% CPU use with 8 MPI tasks x 1 OpenMP threads

MPI task timing breakdown:
Section |  min time  |  avg time  |  max time  |%varavg| %total
---------------------------------------------------------------
Pair    | 0          | 0          | 0          |   0.0 |  0.00
Bond    | 0          | 0          | 0          |   0.0 |  0.00
Kspace  | 0          | 0          | 0          |   0.0 |  0.00
Neigh   | 0          | 0          | 0          |   0.0 |  0.00
Comm    | 0          | 0          | 0          |   0.0 |  0.00
Output  | 0          | 0          | 0          |   0.0 |  0.00
Modify  | 0          | 0          | 0          |   0.0 |  0.00
Other   |            | 30.03      |            |       |100.00

Nlocal:    187.875 ave 200 max 176 min
Histogram: 2 0 0 1 0 2 0 2 0 1
Nghost:    4592.62 ave 4665 max 4519 min
Histogram: 3 0 0 1 0 0 0 1 1 2
Neighs:    67486.6 ave 70925 max 62369 min
Histogram: 1 0 1 0 1 0 1 1 2 1

Total # of neighbors = 539893
Ave neighs/atom = 359.21
Ave special neighs/atom = 2
Neighbor list builds = 0
Dangerous builds = 0
Total wall time: 0:01:30
