LAMMPS (3 Mar 2020)
  using 1 OpenMP thread(s) per MPI task
Reading data file ...
  orthogonal box = (0 0 0) to (24 24 24)
  2 by 2 by 2 MPI processor grid
  reading atoms ...
  1503 atoms
  scanning bonds ...
  2 = max bonds/atom
  scanning angles ...
  1 = max angles/atom
  reading bonds ...
  1002 bonds
  reading angles ...
  501 angles
Finding 1-2 1-3 1-4 neighbors ...
  special bond factors lj:   0          0          0         
  special bond factors coul: 0          0          0         
  2 = max # of 1-2 neighbors
  1 = max # of 1-3 neighbors
  1 = max # of 1-4 neighbors
  2 = max # of special neighbors
  special bonds CPU = 0.000972934 secs
  read_data CPU = 0.013985 secs
Setting atom values ...
  1 settings made for charge
Setting atom values ...
  2 settings made for charge
WARNING: Using 'neigh_modify every 1 delay 0 check yes' setting during minimization (src/min.cpp:190)
PPPM initialization ...
  using 12-bit tables for long-range coulomb (src/kspace.cpp:332)
  G vector (1/distance) = 0.315108
  grid = 24 24 24
  stencil order = 5
  estimated absolute RMS force accuracy = 0.00171378
  estimated relative force accuracy = 5.16099e-06
  using double precision MKL FFT
  3d grid and FFT values/proc = 6859 1728
Neighbor list info ...
  update every 1 steps, delay 0 steps, check yes
  max neighbors/atom: 2000, page size: 100000
  master list distance cutoff = 12
  ghost atom cutoff = 12
  binsize = 6, bins = 4 4 4
  3 neighbor lists, perpetual/occasional/extra = 3 0 0
  (1) pair lj/cut/coul/long, perpetual, skip from (3)
      attributes: half, newton on
      pair build: skip
      stencil: none
      bin: none
  (2) pair lj/cut/coul/long/soft, perpetual, skip from (3)
      attributes: half, newton on
      pair build: skip
      stencil: none
      bin: none
  (3) neighbor class addition, perpetual
      attributes: half, newton on
      pair build: half/bin/newton
      stencil: half/bin/3d/newton
      bin: standard
Setting up cg style minimization ...
  Unit style    : real
  Current step  : 0
Per MPI rank memory allocation (min/avg/max) = 10.15 | 10.15 | 10.16 Mbytes
Step Temp E_pair E_mol TotEng Press 
       0            0   -246.66105   0.56510211   -246.09595    17988.817 
      67            0    -6821.721     347.7357   -6473.9853   -1994.4907 
Loop time of 0.248205 on 8 procs for 67 steps with 1503 atoms

98.6% CPU use with 8 MPI tasks x 1 OpenMP threads

Minimization stats:
  Stopping criterion = energy tolerance
  Energy initial, next-to-last, final = 
         -246.09595277     -6468.12947707     -6473.98525525
  Force two-norm initial, final = 682.346 130.79
  Force max component initial, final = 40.0292 27.5693
  Final line search alpha, max atom move = 0.00457343 0.126086
  Iterations, force evaluations = 67 114

MPI task timing breakdown:
Section |  min time  |  avg time  |  max time  |%varavg| %total
---------------------------------------------------------------
Pair    | 0.16849    | 0.17116    | 0.17451    |   0.5 | 68.96
Bond    | 0.00059355 | 0.00061673 | 0.00065422 |   0.0 |  0.25
Kspace  | 0.054391   | 0.057828   | 0.060473   |   0.8 | 23.30
Neigh   | 0.0043758  | 0.0043828  | 0.0043943  |   0.0 |  1.77
Comm    | 0.011288   | 0.01157    | 0.011869   |   0.2 |  4.66
Output  | 0          | 0          | 0          |   0.0 |  0.00
Modify  | 0          | 0          | 0          |   0.0 |  0.00
Other   |            | 0.002646   |            |       |  1.07

Nlocal:    187.875 ave 191 max 185 min
Histogram: 1 0 0 2 0 3 1 0 0 1
Nghost:    4884.75 ave 4900 max 4872 min
Histogram: 1 0 2 0 1 2 1 0 0 1
Neighs:    72760.6 ave 75107 max 70382 min
Histogram: 1 0 0 1 2 2 1 0 0 1

Total # of neighbors = 582085
Ave neighs/atom = 387.282
Ave special neighs/atom = 2
Neighbor list builds = 3
Dangerous builds = 0
Finding SHAKE clusters ...
  0 = # of size 2 clusters
  0 = # of size 3 clusters
  0 = # of size 4 clusters
  501 = # of frozen angles
  find clusters CPU = 0.000257235 secs
PPPM initialization ...
  using 12-bit tables for long-range coulomb (src/kspace.cpp:332)
  G vector (1/distance) = 0.315108
  grid = 24 24 24
  stencil order = 5
  estimated absolute RMS force accuracy = 0.00171378
  estimated relative force accuracy = 5.16099e-06
  using double precision MKL FFT
  3d grid and FFT values/proc = 6859 1728
Neighbor list info ...
  update every 1 steps, delay 10 steps, check yes
  max neighbors/atom: 2000, page size: 100000
  master list distance cutoff = 12
  ghost atom cutoff = 12
  binsize = 6, bins = 4 4 4
  3 neighbor lists, perpetual/occasional/extra = 3 0 0
  (1) pair lj/cut/coul/long, perpetual, skip from (3)
      attributes: half, newton on
      pair build: skip
      stencil: none
      bin: none
  (2) pair lj/cut/coul/long/soft, perpetual, skip from (3)
      attributes: half, newton on
      pair build: skip
      stencil: none
      bin: none
  (3) neighbor class addition, perpetual
      attributes: half, newton on
      pair build: half/bin/newton
      stencil: half/bin/3d/newton
      bin: standard
Setting up Verlet run ...
  Unit style    : real
  Current step  : 67
  Time step     : 1
Per MPI rank memory allocation (min/avg/max) = 9.904 | 9.905 | 9.906 Mbytes
Step Temp TotEng PotEng E_bond E_angle E_dihed E_coul E_long E_vdwl 
      67     300.000000   -5926.583701   -6821.720959       0.000000       0.000000       0.000000   23620.482200  -31851.205275    1409.002116 
   10000     312.267443   -4572.124696   -5503.865438       0.000000       0.000000       0.000000   25201.607474  -31839.740092    1134.267180 
   20000     297.368137   -4629.433506   -5516.717834       0.000000       0.000000       0.000000   25167.010668  -31840.106531    1156.378030 
   30000     291.554812   -4689.707994   -5559.646578       0.000000       0.000000       0.000000   25239.921918  -31841.493754    1041.925259 
   40000     298.921198   -4642.526877   -5534.445216       0.000000       0.000000       0.000000   25212.424794  -31839.335045    1092.465035 
   50000     298.112876   -4578.041412   -5467.547887       0.000000       0.000000       0.000000   25293.452184  -31840.336000    1079.335929 
   60000     307.318628   -4613.695099   -5530.669613       0.000000       0.000000       0.000000   25296.390829  -31840.178383    1013.117940 
   70000     293.245937   -4644.698901   -5519.683449       0.000000       0.000000       0.000000   25178.802679  -31834.773792    1136.287663 
   80000     309.556621   -4590.482489   -5514.134706       0.000000       0.000000       0.000000   25101.243433  -31840.704495    1225.326355 
   90000     291.599567   -4588.999271   -5459.071393       0.000000       0.000000       0.000000   25341.835389  -31838.507646    1037.600865 
  100000     299.655780   -4691.334954   -5585.445132       0.000000       0.000000       0.000000   25086.558937  -31844.369019    1172.364950 
  110000     310.450139   -4609.458725   -5535.777013       0.000000       0.000000       0.000000   25219.434864  -31837.909397    1082.697521 
  120000     304.980137   -4625.785076   -5535.782022       0.000000       0.000000       0.000000   25229.010992  -31845.216862    1080.423849 
  130000     288.363319   -4650.510262   -5510.926097       0.000000       0.000000       0.000000   25255.348453  -31836.611204    1070.336654 
  140000     306.428536   -4607.843819   -5522.162485       0.000000       0.000000       0.000000   25176.877290  -31842.267009    1143.227234 
  150000     292.013496   -4569.609185   -5440.916386       0.000000       0.000000       0.000000   25356.409217  -31842.565567    1045.239963 
  160000     302.946851   -4591.765385   -5495.695429       0.000000       0.000000       0.000000   25226.346670  -31838.357974    1116.315875 
  170000     304.688931   -4608.673657   -5517.801703       0.000000       0.000000       0.000000   25308.444885  -31839.799593    1013.553005 
  180000     303.735039   -4678.601595   -5584.883427       0.000000       0.000000       0.000000   25208.273048  -31843.926115    1050.769640 
  190000     292.091123   -4660.414842   -5531.953664       0.000000       0.000000       0.000000   25264.980981  -31838.608529    1041.673884 
  200000     304.976397   -4619.384550   -5529.370336       0.000000       0.000000       0.000000   25206.969589  -31842.724701    1106.384775 
  210000     297.568169   -4648.060702   -5535.941885       0.000000       0.000000       0.000000   25199.667590  -31840.809639    1105.200163 
  220000     300.400578   -4638.585808   -5534.918307       0.000000       0.000000       0.000000   25281.868266  -31840.683970    1023.897397 
  230000     299.516332   -4593.043352   -5486.737445       0.000000       0.000000       0.000000   25289.344908  -31837.645294    1061.562941 
  240000     294.975096   -4664.256223   -5544.400218       0.000000       0.000000       0.000000   25203.041850  -31840.766348    1093.324280 
  250000     302.042405   -4543.771244   -5445.002611       0.000000       0.000000       0.000000   25388.815838  -31838.070727    1004.252279 
  260000     295.207530   -4617.376631   -5498.214161       0.000000       0.000000       0.000000   25289.788151  -31839.106534    1051.104221 
  270000     301.884576   -4624.050210   -5524.810649       0.000000       0.000000       0.000000   25269.227205  -31842.291112    1048.253257 
  280000     303.300500   -4615.723649   -5520.708910       0.000000       0.000000       0.000000   25206.534299  -31842.132412    1114.889203 
  290000     308.519241   -4679.165634   -5599.722527       0.000000       0.000000       0.000000   25144.294245  -31845.853144    1101.836373 
  300000     312.769147   -4608.724599   -5541.962319       0.000000       0.000000       0.000000   25187.970087  -31835.586553    1105.654146 
  310000     301.402114   -4682.926481   -5582.247354       0.000000       0.000000       0.000000   25083.411451  -31842.517277    1176.858472 
  320000     305.612092   -4619.415794   -5531.298362       0.000000       0.000000       0.000000   25208.911731  -31843.591253    1103.381160 
  330000     311.381953   -4611.246508   -5540.345133       0.000000       0.000000       0.000000   25224.471640  -31843.892253    1079.075481 
  340000     301.140172   -4609.365814   -5507.905108       0.000000       0.000000       0.000000   25309.762342  -31842.053955    1024.386504 
  350000     305.579065   -4610.654916   -5522.438938       0.000000       0.000000       0.000000   25229.393563  -31843.289205    1091.456703 
  360000     297.239647   -4633.272053   -5520.172996       0.000000       0.000000       0.000000   25291.684477  -31845.031220    1033.173747 
  370000     310.790845   -4606.499826   -5533.834709       0.000000       0.000000       0.000000   25254.836357  -31841.112760    1052.441695 
  380000     302.254810   -4569.512438   -5471.377577       0.000000       0.000000       0.000000   25302.758955  -31843.662712    1069.526180 
  390000     296.567484   -4631.352698   -5516.248044       0.000000       0.000000       0.000000   25283.025161  -31839.034417    1039.761212 
  400000     284.645263   -4677.698646   -5527.020578       0.000000       0.000000       0.000000   25300.420972  -31842.344436    1014.902886 
  410000     307.389911   -4672.156466   -5589.343672       0.000000       0.000000       0.000000   25196.995908  -31837.170491    1050.830910 
  420000     298.488497   -4583.397168   -5474.024415       0.000000       0.000000       0.000000   25337.972555  -31844.511724    1032.514754 
  430000     292.650880   -4644.682476   -5517.891496       0.000000       0.000000       0.000000   25256.490255  -31843.600117    1069.218365 
  440000     296.374883   -4680.147427   -5564.468094       0.000000       0.000000       0.000000   25157.099760  -31841.648314    1120.080460 
  450000     299.839892   -4622.386404   -5517.045933       0.000000       0.000000       0.000000   25263.963307  -31844.210792    1063.201552 
  460000     303.588314   -4593.302545   -5499.146583       0.000000       0.000000       0.000000   25346.861540  -31840.784782     994.776659 
  470000     284.002238   -4671.658193   -5519.061475       0.000000       0.000000       0.000000   25238.853417  -31841.383695    1083.468803 
  480000     297.780341   -4675.990609   -5564.504868       0.000000       0.000000       0.000000   25239.468530  -31842.851466    1038.878067 
  490000     296.455952   -4688.410822   -5572.973381       0.000000       0.000000       0.000000   25152.458893  -31841.101978    1115.669705 
  500000     288.755713   -4679.652508   -5541.239164       0.000000       0.000000       0.000000   25183.822636  -31841.709230    1116.647429 
  510000     289.955656   -4734.217487   -5599.384522       0.000000       0.000000       0.000000   25091.906659  -31841.335861    1150.044680 
  520000     300.715662   -4681.379756   -5578.652399       0.000000       0.000000       0.000000   25112.096995  -31842.378897    1151.629503 
  530000     300.137595   -4642.736014   -5538.283826       0.000000       0.000000       0.000000   25217.602354  -31841.152985    1085.266805 
  540000     285.437265   -4693.396672   -5545.081775       0.000000       0.000000       0.000000   25082.693421  -31841.179654    1213.404458 
  550000     302.000118   -4657.024529   -5558.129721       0.000000       0.000000       0.000000   25211.470694  -31840.234444    1070.634029 
  560000     298.264187   -4716.390637   -5606.348592       0.000000       0.000000       0.000000   25090.697021  -31843.012208    1145.966595 
  570000     312.648878   -4562.130201   -5495.009065       0.000000       0.000000       0.000000   25286.365019  -31840.769674    1059.395590 
  580000     304.779093   -4649.655178   -5559.052250       0.000000       0.000000       0.000000   25111.077521  -31842.533035    1172.403265 
  590000     292.564361   -4720.466488   -5593.417354       0.000000       0.000000       0.000000   25194.459739  -31845.933715    1058.056622 
  600000     300.995416   -4583.842619   -5481.949990       0.000000       0.000000       0.000000   25263.425826  -31841.219188    1095.843372 
  610000     308.142143   -4560.950008   -5480.381719       0.000000       0.000000       0.000000   25248.797465  -31840.763116    1111.583933 
  620000     308.280614   -4562.982805   -5482.827684       0.000000       0.000000       0.000000   25224.944028  -31839.878752    1132.107040 
  630000     303.986165   -4578.422863   -5485.454003       0.000000       0.000000       0.000000   25286.856560  -31840.631078    1068.320514 
  640000     302.781037   -4587.393562   -5490.828853       0.000000       0.000000       0.000000   25251.358071  -31843.911837    1101.724913 
  650000     292.864142   -4654.201213   -5528.046563       0.000000       0.000000       0.000000   25287.722053  -31839.090279    1023.321663 
  660000     310.962793   -4557.294994   -5485.142934       0.000000       0.000000       0.000000   25348.830173  -31842.622331    1008.649225 
  670000     291.637207   -4689.541412   -5559.725845       0.000000       0.000000       0.000000   25152.512268  -31840.895497    1128.657385 
  680000     308.140092   -4661.172706   -5580.598296       0.000000       0.000000       0.000000   25164.083312  -31839.282682    1094.601073 
  690000     287.917472   -4630.998963   -5490.084485       0.000000       0.000000       0.000000   25291.635467  -31838.793667    1057.073715 
  700000     289.751372   -4718.593699   -5583.151194       0.000000       0.000000       0.000000   25115.974623  -31843.404699    1144.278882 
  710000     308.595744   -4635.638835   -5556.423996       0.000000       0.000000       0.000000   25197.025701  -31845.058007    1091.608311 
  720000     291.671423   -4646.453864   -5516.740391       0.000000       0.000000       0.000000   25270.774675  -31842.518704    1055.003638 
  730000     297.502281   -4578.661660   -5466.346246       0.000000       0.000000       0.000000   25304.485494  -31839.410528    1068.578788 
  740000     296.822743   -4616.355999   -5502.012988       0.000000       0.000000       0.000000   25240.118739  -31843.159378    1101.027651 
  750000     309.786683   -4569.795393   -5494.134066       0.000000       0.000000       0.000000   25296.742225  -31840.617496    1049.741205 
  760000     310.476565   -4609.215450   -5535.612588       0.000000       0.000000       0.000000   25223.777122  -31841.023664    1081.633954 
  770000     309.250000   -4605.169877   -5527.907201       0.000000       0.000000       0.000000   25212.284935  -31838.144011    1097.951874 
  780000     293.515646   -4741.398564   -5617.187865       0.000000       0.000000       0.000000   25110.938294  -31841.836767    1113.710609 
  790000     298.705772   -4640.042207   -5531.317758       0.000000       0.000000       0.000000   25256.845317  -31843.589320    1055.426245 
  800000     294.455028   -4604.873545   -5483.465767       0.000000       0.000000       0.000000   25232.144132  -31840.286116    1124.676217 
  810000     294.836566   -4647.428943   -5527.159594       0.000000       0.000000       0.000000   25137.506680  -31842.323389    1177.657116 
  820000     309.005144   -4616.534962   -5538.541688       0.000000       0.000000       0.000000   25121.589737  -31843.547137    1183.415712 
  830000     298.673909   -4651.589052   -5542.769533       0.000000       0.000000       0.000000   25166.801007  -31844.017689    1134.447149 
  840000     299.007064   -4670.016657   -5562.191202       0.000000       0.000000       0.000000   25161.728548  -31845.352454    1121.432703 
  850000     303.719121   -4639.137085   -5545.371423       0.000000       0.000000       0.000000   25215.257845  -31846.529958    1085.900691 
  860000     299.206632   -4718.070554   -5610.840568       0.000000       0.000000       0.000000   25082.370495  -31838.651324    1145.440261 
  870000     309.210821   -4636.114604   -5558.735025       0.000000       0.000000       0.000000   25196.478177  -31842.225648    1087.012447 
  880000     303.619552   -4648.452141   -5554.389385       0.000000       0.000000       0.000000   25159.391916  -31838.867246    1125.085944 
  890000     310.789510   -4607.831045   -5535.161946       0.000000       0.000000       0.000000   25210.638309  -31837.564938    1091.764683 
  900000     284.063880   -4672.476518   -5520.063727       0.000000       0.000000       0.000000   25244.627015  -31837.909453    1073.218711 
  910000     296.745372   -4563.944702   -5449.370832       0.000000       0.000000       0.000000   25344.024161  -31836.745456    1043.350463 
  920000     290.360041   -4681.284442   -5547.658078       0.000000       0.000000       0.000000   25239.920181  -31840.882696    1053.304437 
  930000     295.063664   -4636.551373   -5516.959638       0.000000       0.000000       0.000000   25247.209739  -31840.278949    1076.109572 
  940000     297.192041   -4640.048161   -5526.807055       0.000000       0.000000       0.000000   25236.834425  -31842.570796    1078.929316 
  950000     313.572280   -4603.820736   -5539.454838       0.000000       0.000000       0.000000   25197.464470  -31841.525182    1104.605874 
  960000     302.768496   -4626.912545   -5530.310417       0.000000       0.000000       0.000000   25259.347794  -31839.296079    1049.637867 
  970000     303.487155   -4633.170645   -5538.712843       0.000000       0.000000       0.000000   25276.099097  -31843.408773    1028.596833 
  980000     306.930716   -4641.560406   -5557.377470       0.000000       0.000000       0.000000   25202.507661  -31841.566772    1081.681641 
  990000     301.568350   -4599.322127   -5499.139012       0.000000       0.000000       0.000000   25279.876424  -31843.725987    1064.710551 
 1000000     293.668379   -4658.293510   -5534.538535       0.000000       0.000000       0.000000   25169.044196  -31841.823867    1138.241135 
 1000067     295.682184   -4658.193596   -5540.447393       0.000000       0.000000       0.000000   25242.248766  -31841.640276    1058.944117 
Loop time of 1970.01 on 8 procs for 1000000 steps with 1503 atoms

Performance: 43.858 ns/day, 0.547 hours/ns, 507.611 timesteps/s
99.2% CPU use with 8 MPI tasks x 1 OpenMP threads

MPI task timing breakdown:
Section |  min time  |  avg time  |  max time  |%varavg| %total
---------------------------------------------------------------
Pair    | 976.57     | 981.9      | 991.88     |  14.0 | 49.84
Bond    | 0.29107    | 0.32742    | 0.35678    |   4.2 |  0.02
Kspace  | 521.88     | 531.67     | 536.84     |  18.7 | 26.99
Neigh   | 70.306     | 70.323     | 70.349     |   0.2 |  3.57
Comm    | 90.891     | 94.683     | 98.313     |  23.7 |  4.81
Output  | 0.0041152  | 0.0061429  | 0.02015    |   6.8 |  0.00
Modify  | 267.51     | 279.4      | 289.66     |  40.4 | 14.18
Other   |            | 11.71      |            |       |  0.59

Nlocal:    187.875 ave 193 max 181 min
Histogram: 3 0 0 0 0 0 1 0 1 3
Nghost:    4625.62 ave 4658 max 4593 min
Histogram: 1 2 1 0 0 0 0 1 2 1
Neighs:    67538.2 ave 70548 max 64972 min
Histogram: 1 1 1 1 0 0 3 0 0 1

Total # of neighbors = 540306
Ave neighs/atom = 359.485
Ave special neighs/atom = 2
Neighbor list builds = 43344
Dangerous builds = 0
PPPM initialization ...
  using 12-bit tables for long-range coulomb (src/kspace.cpp:332)
  G vector (1/distance) = 0.313077
  grid = 24 24 24
  stencil order = 5
  estimated absolute RMS force accuracy = 0.00186553
  estimated relative force accuracy = 5.618e-06
  using double precision MKL FFT
  3d grid and FFT values/proc = 6859 1728
Neighbor list info ...
  update every 1 steps, delay 10 steps, check yes
  max neighbors/atom: 2000, page size: 100000
  master list distance cutoff = 12
  ghost atom cutoff = 12
  binsize = 6, bins = 5 5 5
  3 neighbor lists, perpetual/occasional/extra = 3 0 0
  (1) pair lj/cut/coul/long, perpetual, skip from (3)
      attributes: half, newton on
      pair build: skip
      stencil: none
      bin: none
  (2) pair lj/cut/coul/long/soft, perpetual, skip from (3)
      attributes: half, newton on
      pair build: skip
      stencil: none
      bin: none
  (3) neighbor class addition, perpetual
      attributes: half, newton on
      pair build: half/bin/newton
      stencil: half/bin/3d/newton
      bin: standard
Setting up Verlet run ...
  Unit style    : real
  Current step  : 0
  Time step     : 1
Per MPI rank memory allocation (min/avg/max) = 10.91 | 10.91 | 10.91 Mbytes
Step Temp TotEng PotEng E_bond E_angle E_dihed E_coul E_long E_vdwl 
       0     295.682184   -4658.193694   -5540.447492       0.000000       0.000000       0.000000   25037.485259  -31636.876868    1058.944117 
   10000     302.616693   -4646.997195   -5549.942117       0.000000       0.000000       0.000000   25019.594417  -31633.916172    1064.379638 
   20000     298.905449   -4558.259277   -5450.130623       0.000000       0.000000       0.000000   25094.189148  -31638.336813    1094.017042 
   30000     295.299988   -4682.516077   -5563.629482       0.000000       0.000000       0.000000   24990.252409  -31634.690670    1080.808779 
   40000     310.683808   -4534.907109   -5461.922614       0.000000       0.000000       0.000000   25067.018767  -31636.752442    1107.811061 
   50000     292.846115   -4615.660358   -5489.451918       0.000000       0.000000       0.000000   25084.408303  -31636.233092    1062.372870 
   60000     302.048732   -4576.122656   -5477.372901       0.000000       0.000000       0.000000   25098.469756  -31633.481729    1057.639072 
   70000     302.556700   -4588.569999   -5491.335916       0.000000       0.000000       0.000000   25088.892884  -31635.080107    1054.851306 
   80000     288.440464   -4715.987001   -5576.633022       0.000000       0.000000       0.000000   24913.771681  -31639.588767    1149.184064 
   90000     290.851409   -4673.255106   -5541.094881       0.000000       0.000000       0.000000   25040.587854  -31635.701890    1054.019155 
  100000     286.006731   -4774.351927   -5627.736198       0.000000       0.000000       0.000000   24853.666649  -31632.850798    1151.447951 
  110000     295.491403   -4620.558303   -5502.242852       0.000000       0.000000       0.000000   25053.213880  -31640.620265    1085.163533 
  120000     300.845143   -4592.692091   -5490.351080       0.000000       0.000000       0.000000   25093.504173  -31637.991555    1054.136303 
  130000     295.235018   -4662.617606   -5543.537155       0.000000       0.000000       0.000000   25023.300359  -31639.363421    1072.525907 
  140000     299.448384   -4618.625488   -5512.116839       0.000000       0.000000       0.000000   24991.527765  -31638.989361    1135.344758 
  150000     297.519441   -4662.309332   -5550.045121       0.000000       0.000000       0.000000   24998.458597  -31641.277234    1092.773516 
  160000     291.710188   -4650.318083   -5520.720278       0.000000       0.000000       0.000000   25035.767053  -31640.246199    1083.758869 
  170000     291.632862   -4627.078433   -5497.249902       0.000000       0.000000       0.000000   25057.221713  -31637.297631    1082.826016 
  180000     296.250517   -4637.457212   -5521.406795       0.000000       0.000000       0.000000   25012.185023  -31633.605016    1100.013198 
  190000     292.268067   -4708.671012   -5580.737800       0.000000       0.000000       0.000000   24925.752131  -31638.805542    1132.315612 
  200000     289.822288   -4699.128651   -5563.897744       0.000000       0.000000       0.000000   25010.964921  -31641.111852    1066.249187 
  210000     298.506844   -4683.651880   -5574.333871       0.000000       0.000000       0.000000   24949.052174  -31641.439711    1118.053666 
  220000     311.469769   -4594.383521   -5523.744172       0.000000       0.000000       0.000000   25023.951994  -31639.094795    1091.398629 
  230000     301.332944   -4677.765156   -5576.879640       0.000000       0.000000       0.000000   24896.130115  -31636.365029    1163.355274 
  240000     292.408788   -4632.213790   -5504.700460       0.000000       0.000000       0.000000   25074.333589  -31634.868971    1055.834921 
  250000     292.586398   -4712.008294   -5585.024913       0.000000       0.000000       0.000000   24967.364956  -31639.393199    1087.003330 
  260000     313.219807   -4575.678317   -5510.260715       0.000000       0.000000       0.000000   25004.823891  -31635.040066    1119.955459 
  270000     301.838957   -4639.666692   -5540.291014       0.000000       0.000000       0.000000   25013.106700  -31637.492285    1084.094571 
  280000     305.357665   -4652.876173   -5563.999581       0.000000       0.000000       0.000000   24950.355506  -31637.436315    1123.081227 
  290000     304.827744   -4604.045017   -5513.587254       0.000000       0.000000       0.000000   25053.083168  -31638.356826    1071.686404 
  300000     288.935788   -4714.096328   -5576.220291       0.000000       0.000000       0.000000   24951.956929  -31637.823363    1109.646143 
  310000     304.109352   -4585.142309   -5492.541013       0.000000       0.000000       0.000000   25118.622329  -31631.334689    1020.171347 
  320000     295.524711   -4653.881606   -5535.665536       0.000000       0.000000       0.000000   25026.543385  -31634.990274    1072.781352 
  330000     305.272916   -4611.236979   -5522.107517       0.000000       0.000000       0.000000   25019.809206  -31640.077553    1098.160829 
  340000     304.967828   -4629.342909   -5539.303127       0.000000       0.000000       0.000000   24973.043165  -31637.140826    1124.794534 
  350000     292.611096   -4638.952746   -5512.043061       0.000000       0.000000       0.000000   25031.336365  -31632.044219    1088.664794 
  360000     311.921296   -4589.679671   -5520.387583       0.000000       0.000000       0.000000   25020.334080  -31639.009030    1098.287368 
  370000     298.772187   -4656.010566   -5547.484286       0.000000       0.000000       0.000000   25013.237477  -31634.780886    1074.059123 
  380000     318.238191   -4570.553491   -5520.109698       0.000000       0.000000       0.000000   25031.779845  -31633.681860    1081.792317 
  390000     316.926222   -4570.322566   -5515.964132       0.000000       0.000000       0.000000   24986.392728  -31637.793235    1135.436376 
  400000     305.962635   -4600.206475   -5513.134989       0.000000       0.000000       0.000000   24997.216229  -31635.033764    1124.682546 
  410000     290.831733   -4688.273325   -5556.054391       0.000000       0.000000       0.000000   24951.316175  -31637.575761    1130.205196 
  420000     309.236895   -4612.844828   -5535.543048       0.000000       0.000000       0.000000   24979.828641  -31638.744144    1123.372456 
  430000     295.333723   -4584.748426   -5465.962488       0.000000       0.000000       0.000000   25151.313894  -31638.272521    1020.996139 
  440000     293.034044   -4662.334844   -5536.687146       0.000000       0.000000       0.000000   25048.035957  -31635.400179    1050.677076 
  450000     300.879892   -4624.344828   -5522.107501       0.000000       0.000000       0.000000   25065.820080  -31635.316789    1047.389209 
  460000     293.527194   -4696.507194   -5572.330953       0.000000       0.000000       0.000000   24937.119919  -31639.532070    1130.081198 
  470000     300.131633   -4672.174153   -5567.704176       0.000000       0.000000       0.000000   24928.946018  -31638.955157    1142.304963 
  480000     303.525792   -4658.319497   -5563.976980       0.000000       0.000000       0.000000   24926.094601  -31639.458154    1149.386572 
  490000     299.269945   -4653.903900   -5546.862826       0.000000       0.000000       0.000000   24986.837394  -31637.596906    1103.896686 
  500000     300.822167   -4656.420432   -5554.010863       0.000000       0.000000       0.000000   24934.552553  -31630.835826    1142.272410 
  510000     303.581876   -4652.623252   -5558.448077       0.000000       0.000000       0.000000   25036.736588  -31638.667190    1043.482525 
  520000     300.909305   -4624.478462   -5522.328897       0.000000       0.000000       0.000000   25020.485829  -31632.458455    1089.643730 
  530000     297.809469   -4653.720275   -5542.321448       0.000000       0.000000       0.000000   24944.521826  -31639.217078    1152.373804 
  540000     303.861666   -4624.802435   -5531.462098       0.000000       0.000000       0.000000   24991.753306  -31634.871393    1111.655990 
  550000     301.235515   -4633.678030   -5532.501805       0.000000       0.000000       0.000000   25024.847057  -31637.909434    1080.560573 
  560000     296.166362   -4654.378956   -5538.077439       0.000000       0.000000       0.000000   25003.167724  -31636.599459    1095.354295 
  570000     304.099904   -4562.472890   -5469.843403       0.000000       0.000000       0.000000   25070.256713  -31634.663520    1094.563404 
  580000     299.041301   -4658.484561   -5550.761262       0.000000       0.000000       0.000000   24931.895116  -31638.148243    1155.491865 
  590000     295.992123   -4605.542095   -5488.720686       0.000000       0.000000       0.000000   25113.149378  -31638.668765    1036.798700 
  600000     301.057181   -4684.628809   -5582.920474       0.000000       0.000000       0.000000   24861.957177  -31638.566280    1193.688629 
  610000     291.771514   -4631.440942   -5502.026120       0.000000       0.000000       0.000000   25071.550883  -31635.337373    1061.760370 
  620000     302.195446   -4631.154871   -5532.842881       0.000000       0.000000       0.000000   24952.709597  -31638.255613    1152.703135 
  630000     295.665708   -4635.747611   -5517.952249       0.000000       0.000000       0.000000   25056.136706  -31633.359375    1059.270419 
  640000     314.723554   -4595.603692   -5534.672956       0.000000       0.000000       0.000000   25023.054707  -31635.480180    1077.752516 
  650000     299.088667   -4577.185915   -5469.603946       0.000000       0.000000       0.000000   25082.216575  -31636.142356    1084.321836 
  660000     289.564841   -4646.098798   -5510.099724       0.000000       0.000000       0.000000   25094.630137  -31637.338966    1032.609105 
  670000     293.402366   -4671.015433   -5546.466732       0.000000       0.000000       0.000000   25014.234595  -31637.669276    1076.967950 
  680000     302.031058   -4594.790539   -5495.988049       0.000000       0.000000       0.000000   25121.967658  -31636.595710    1018.640003 
  690000     299.418141   -4652.811186   -5546.212298       0.000000       0.000000       0.000000   24976.978415  -31636.309005    1113.118292 
  700000     303.578068   -4681.296984   -5587.110450       0.000000       0.000000       0.000000   24948.466228  -31640.765080    1105.188402 
  710000     304.359427   -4590.469275   -5498.614151       0.000000       0.000000       0.000000   24981.179867  -31635.186058    1155.392040 
  720000     309.312634   -4623.153906   -5546.078114       0.000000       0.000000       0.000000   24948.193942  -31632.980202    1138.708146 
  730000     297.959120   -4656.789290   -5545.836990       0.000000       0.000000       0.000000   24982.668509  -31635.578688    1107.073189 
  740000     294.670459   -4640.747779   -5519.982802       0.000000       0.000000       0.000000   25050.215294  -31637.479763    1067.281668 
  750000     295.143292   -4656.664536   -5537.310394       0.000000       0.000000       0.000000   24993.233679  -31638.977484    1108.433411 
  760000     306.362090   -4632.220681   -5546.341084       0.000000       0.000000       0.000000   24944.967394  -31632.083004    1140.774526 
  770000     311.841479   -4542.534929   -5473.004685       0.000000       0.000000       0.000000   25086.777833  -31637.059385    1077.276868 
  780000     307.661987   -4628.536089   -5546.535115       0.000000       0.000000       0.000000   25047.482887  -31635.983854    1041.965851 
  790000     295.023342   -4736.429711   -5616.717661       0.000000       0.000000       0.000000   24830.316917  -31637.351487    1190.316909 
  800000     307.529500   -4611.436828   -5529.040539       0.000000       0.000000       0.000000   25070.136183  -31635.891568    1036.714846 
  810000     319.046233   -4566.369553   -5518.336786       0.000000       0.000000       0.000000   24995.026559  -31636.922826    1123.559481 
  820000     296.839390   -4674.612609   -5560.319268       0.000000       0.000000       0.000000   24976.762735  -31638.817504    1101.735501 
  830000     299.024476   -4687.141644   -5579.368143       0.000000       0.000000       0.000000   24934.872456  -31638.064732    1123.824133 
  840000     296.381240   -4642.425456   -5526.765091       0.000000       0.000000       0.000000   25018.649516  -31638.144280    1092.729673 
  850000     308.183067   -4581.123829   -5500.677648       0.000000       0.000000       0.000000   25072.669187  -31636.482658    1063.135823 
  860000     302.618526   -4637.260515   -5540.210906       0.000000       0.000000       0.000000   25024.812488  -31634.356482    1069.333088 
  870000     307.763143   -4673.488411   -5591.789263       0.000000       0.000000       0.000000   24945.418756  -31639.837721    1102.629703 
  880000     300.534085   -4599.054150   -5495.785006       0.000000       0.000000       0.000000   25120.263121  -31637.282316    1021.234190 
  890000     290.331801   -4602.765372   -5469.054745       0.000000       0.000000       0.000000   25076.313651  -31636.904715    1091.536319 
  900000     314.183329   -4541.663470   -5479.120817       0.000000       0.000000       0.000000   25070.610803  -31636.161229    1086.429609 
  910000     298.299978   -4528.297005   -5418.361753       0.000000       0.000000       0.000000   25136.402128  -31634.998680    1080.234799 
  920000     293.336543   -4584.191799   -5459.446695       0.000000       0.000000       0.000000   25109.004102  -31635.962257    1067.511461 
  930000     306.914342   -4616.877886   -5532.646094       0.000000       0.000000       0.000000   25016.694760  -31638.173142    1088.832289 
  940000     300.938597   -4647.068040   -5545.005877       0.000000       0.000000       0.000000   24947.047950  -31638.176578    1146.122752 
  950000     305.604344   -4618.530828   -5530.390276       0.000000       0.000000       0.000000   25001.419299  -31636.768134    1104.958558 
  960000     296.115325   -4684.479383   -5568.025584       0.000000       0.000000       0.000000   24950.571453  -31640.940259    1122.343222 
  970000     302.261241   -4678.625575   -5580.509903       0.000000       0.000000       0.000000   24949.887834  -31637.451137    1107.053400 
  980000     289.156381   -4691.799839   -5554.582005       0.000000       0.000000       0.000000   24963.118149  -31641.352686    1123.652531 
  990000     311.549533   -4592.964054   -5522.562703       0.000000       0.000000       0.000000   25056.409075  -31635.390557    1056.418780 
 1000000     304.822025   -4633.199270   -5542.724442       0.000000       0.000000       0.000000   24922.241083  -31636.648002    1171.682477 
 1010000     291.318648   -4696.637276   -5565.871195       0.000000       0.000000       0.000000   24953.355501  -31635.537500    1116.310804 
 1020000     306.664213   -4562.666793   -5477.688669       0.000000       0.000000       0.000000   25138.233124  -31627.201257    1011.279463 
 1030000     297.755443   -4638.876279   -5527.316249       0.000000       0.000000       0.000000   25040.555646  -31637.562936    1069.691041 
 1040000     291.684310   -4722.454799   -5592.779779       0.000000       0.000000       0.000000   24932.857605  -31636.828318    1111.190935 
 1050000     311.473719   -4615.570997   -5544.943434       0.000000       0.000000       0.000000   24977.175296  -31636.653594    1114.534863 
 1060000     303.043704   -4587.695421   -5491.914456       0.000000       0.000000       0.000000   25090.334315  -31636.457896    1054.209124 
 1070000     294.573764   -4709.326658   -5588.273163       0.000000       0.000000       0.000000   24877.105027  -31633.604875    1168.226685 
 1080000     298.547323   -4678.996343   -5569.799117       0.000000       0.000000       0.000000   24941.506677  -31637.271318    1125.965524 
 1090000     300.374748   -4577.214703   -5473.470132       0.000000       0.000000       0.000000   25092.485590  -31632.653930    1066.698208 
 1100000     294.394660   -4741.306495   -5619.718591       0.000000       0.000000       0.000000   24929.371471  -31638.950103    1089.860041 
 1110000     302.927033   -4573.548978   -5477.419891       0.000000       0.000000       0.000000   25028.914064  -31634.218113    1127.884159 
 1120000     302.982069   -4657.260389   -5561.295517       0.000000       0.000000       0.000000   25059.157627  -31635.559808    1015.106664 
 1130000     312.713791   -4573.167757   -5506.240309       0.000000       0.000000       0.000000   25062.975717  -31639.799821    1070.583795 
 1140000     294.439584   -4619.877518   -5498.423659       0.000000       0.000000       0.000000   25094.178576  -31640.198642    1047.596407 
 1150000     295.141794   -4631.939544   -5512.580930       0.000000       0.000000       0.000000   25018.805039  -31639.364497    1107.978528 
 1160000     303.382643   -4719.229271   -5624.459628       0.000000       0.000000       0.000000   24956.285635  -31641.152452    1060.407189 
 1170000     285.580712   -4675.580483   -5527.693601       0.000000       0.000000       0.000000   25097.993572  -31634.339067    1008.651893 
 1180000     296.595716   -4609.524524   -5494.504111       0.000000       0.000000       0.000000   25021.497168  -31637.122546    1121.121267 
 1190000     319.070671   -4561.561739   -5513.601891       0.000000       0.000000       0.000000   25042.706486  -31634.805842    1078.497466 
 1200000     319.885432   -4631.057112   -5585.528339       0.000000       0.000000       0.000000   24877.188097  -31639.528812    1176.812376 
 1210000     299.814920   -4665.083621   -5559.668639       0.000000       0.000000       0.000000   24914.986242  -31634.390810    1159.735928 
 1220000     301.235214   -4612.168022   -5510.990900       0.000000       0.000000       0.000000   25020.259782  -31637.195503    1105.944820 
 1230000     302.224878   -4580.143657   -5481.919485       0.000000       0.000000       0.000000   25103.444557  -31633.486582    1048.122541 
 1240000     300.034621   -4628.466629   -5523.707189       0.000000       0.000000       0.000000   25016.879001  -31635.339786    1094.753595 
 1250000     289.237204   -4692.634029   -5555.657355       0.000000       0.000000       0.000000   24973.241842  -31641.101178    1112.201981 
 1260000     302.125315   -4606.791067   -5508.269821       0.000000       0.000000       0.000000   25107.325498  -31641.260560    1025.665240 
 1270000     291.233973   -4639.441826   -5508.423092       0.000000       0.000000       0.000000   24998.219248  -31637.773665    1131.131324 
 1280000     295.589100   -4673.425567   -5555.401622       0.000000       0.000000       0.000000   24972.362834  -31638.434452    1110.669996 
 1290000     286.368416   -4759.148714   -5613.612176       0.000000       0.000000       0.000000   24995.033341  -31641.264998    1032.619481 
 1300000     291.603344   -4736.691446   -5606.774837       0.000000       0.000000       0.000000   24920.087683  -31639.802989    1112.940468 
 1310000     297.246557   -4631.240705   -5518.162266       0.000000       0.000000       0.000000   25016.753825  -31639.679631    1104.763540 
 1320000     302.693524   -4605.285841   -5508.460009       0.000000       0.000000       0.000000   25094.153277  -31638.617134    1036.003848 
 1330000     299.699602   -4649.140206   -5543.381140       0.000000       0.000000       0.000000   24993.717235  -31635.678117    1098.579742 
 1340000     299.466927   -4674.128314   -5567.674994       0.000000       0.000000       0.000000   24936.628092  -31634.416034    1130.112948 
 1350000     300.688866   -4646.926480   -5544.119171       0.000000       0.000000       0.000000   25018.339720  -31632.644441    1070.185550 
 1360000     308.000272   -4626.676523   -5545.684919       0.000000       0.000000       0.000000   24956.671020  -31639.607910    1137.251972 
 1370000     294.924876   -4671.424281   -5551.418430       0.000000       0.000000       0.000000   24952.516706  -31639.671905    1135.736769 
 1380000     301.532942   -4646.897943   -5546.609180       0.000000       0.000000       0.000000   25016.851157  -31634.143203    1070.682866 
 1390000     298.120544   -4596.866883   -5486.396236       0.000000       0.000000       0.000000   25039.032520  -31637.494003    1112.065247 
 1400000     296.994778   -4667.434020   -5553.604323       0.000000       0.000000       0.000000   24947.833088  -31639.186350    1137.748938 
 1410000     300.181128   -4620.030439   -5515.708145       0.000000       0.000000       0.000000   25098.806458  -31642.122232    1027.607628 
 1420000     296.828965   -4606.270739   -5491.946292       0.000000       0.000000       0.000000   25023.600864  -31639.813019    1124.265863 
 1430000     295.280487   -4650.010550   -5531.065770       0.000000       0.000000       0.000000   24995.287134  -31634.066283    1107.713379 
 1440000     289.003920   -4728.477517   -5590.804773       0.000000       0.000000       0.000000   24994.456024  -31639.104168    1053.843371 
 1450000     286.234301   -4719.476622   -5573.539913       0.000000       0.000000       0.000000   24983.286227  -31637.794162    1080.968022 
 1460000     307.919535   -4636.562644   -5555.330137       0.000000       0.000000       0.000000   25068.394304  -31634.302108    1010.577666 
 1470000     298.360104   -4624.750238   -5514.994390       0.000000       0.000000       0.000000   24996.069415  -31632.102272    1121.038467 
 1480000     289.621690   -4646.051682   -5510.222233       0.000000       0.000000       0.000000   24963.592540  -31635.966813    1162.152039 
 1490000     300.817879   -4598.618606   -5496.196244       0.000000       0.000000       0.000000   25092.412464  -31639.459205    1050.850498 
 1500000     290.545834   -4704.229857   -5571.157860       0.000000       0.000000       0.000000   24914.294381  -31637.191757    1151.739515 
 1510000     293.308259   -4609.058724   -5484.229227       0.000000       0.000000       0.000000   25121.349467  -31635.973142    1030.394448 
 1520000     296.728500   -4676.483167   -5561.858954       0.000000       0.000000       0.000000   24966.991556  -31638.078451    1109.227941 
 1530000     298.653719   -4628.306727   -5519.426963       0.000000       0.000000       0.000000   25044.279232  -31639.512948    1075.806753 
 1540000     304.707446   -4623.909600   -5533.092892       0.000000       0.000000       0.000000   25014.533826  -31640.966736    1093.340017 
 1550000     307.086069   -4586.153980   -5502.434586       0.000000       0.000000       0.000000   25108.514045  -31637.776709    1026.828078 
 1560000     304.656639   -4603.082239   -5512.113935       0.000000       0.000000       0.000000   25028.801539  -31638.870700    1097.955225 
 1570000     301.387029   -4568.092025   -5467.367886       0.000000       0.000000       0.000000   25065.697452  -31633.503254    1100.437916 
 1580000     286.754583   -4678.910533   -5534.526236       0.000000       0.000000       0.000000   25005.853220  -31638.346065    1097.966609 
 1590000     308.978714   -4477.995069   -5399.922932       0.000000       0.000000       0.000000   25180.992195  -31631.586960    1050.671832 
 1600000     317.427822   -4561.840781   -5508.979014       0.000000       0.000000       0.000000   25063.533017  -31635.128672    1062.616641 
 1610000     299.039495   -4648.011856   -5540.283169       0.000000       0.000000       0.000000   25005.620435  -31639.764362    1093.860758 
 1620000     289.437706   -4686.065337   -5549.686918       0.000000       0.000000       0.000000   24974.539161  -31636.187109    1111.961030 
 1630000     305.181827   -4651.006610   -5561.605355       0.000000       0.000000       0.000000   25030.393976  -31638.677615    1046.678284 
 1640000     300.474430   -4635.544104   -5532.096961       0.000000       0.000000       0.000000   25035.059901  -31634.126031    1066.969170 
 1650000     296.008226   -4656.355880   -5539.582519       0.000000       0.000000       0.000000   25030.075439  -31637.251294    1067.593336 
 1660000     295.709398   -4653.638662   -5535.973661       0.000000       0.000000       0.000000   25093.757718  -31638.504687    1008.773309 
 1670000     296.847164   -4671.559516   -5557.289371       0.000000       0.000000       0.000000   24999.688654  -31636.881173    1079.903148 
 1680000     300.226203   -4632.183746   -5527.995946       0.000000       0.000000       0.000000   25013.941570  -31637.753649    1095.816133 
 1690000     299.841011   -4660.003322   -5554.666189       0.000000       0.000000       0.000000   24943.384758  -31638.601215    1140.550268 
 1700000     297.068518   -4624.442449   -5510.832777       0.000000       0.000000       0.000000   25026.558290  -31636.764211    1099.373144 
 1710000     296.214805   -4631.728596   -5515.571623       0.000000       0.000000       0.000000   25037.537426  -31636.829379    1083.720329 
 1720000     307.385736   -4640.616657   -5557.791408       0.000000       0.000000       0.000000   24936.947020  -31636.112232    1141.373804 
 1730000     308.884399   -4608.802267   -5530.448714       0.000000       0.000000       0.000000   25016.935284  -31636.678852    1089.294854 
 1740000     309.625002   -4604.264348   -5528.120600       0.000000       0.000000       0.000000   25010.379244  -31633.496641    1094.996797 
 1750000     316.819742   -4670.037004   -5615.360853       0.000000       0.000000       0.000000   24861.585105  -31634.629046    1157.683088 
 1760000     298.749407   -4609.034057   -5500.439807       0.000000       0.000000       0.000000   25042.358697  -31634.314520    1091.516016 
 1770000     295.190476   -4621.506311   -5502.292957       0.000000       0.000000       0.000000   25092.714027  -31631.914857    1036.907873 
 1780000     300.609276   -4687.536046   -5584.491256       0.000000       0.000000       0.000000   24934.157693  -31636.135296    1117.486347 
 1790000     303.396389   -4570.600280   -5475.871652       0.000000       0.000000       0.000000   25074.301871  -31638.114382    1087.940859 
 1800000     298.747393   -4632.410451   -5523.810192       0.000000       0.000000       0.000000   25069.780147  -31638.397710    1044.807371 
 1810000     307.521000   -4578.811145   -5496.389493       0.000000       0.000000       0.000000   25009.201983  -31638.988816    1133.397340 
 1820000     303.755661   -4592.936158   -5499.279522       0.000000       0.000000       0.000000   25083.697515  -31636.642943    1053.665906 
 1830000     301.872451   -4618.399766   -5519.124027       0.000000       0.000000       0.000000   25019.073816  -31638.436236    1100.238393 
 1840000     308.828646   -4559.440719   -5480.920809       0.000000       0.000000       0.000000   25162.673525  -31641.562928     997.968593 
 1850000     291.699319   -4657.027947   -5527.397709       0.000000       0.000000       0.000000   25061.348290  -31631.756459    1043.010460 
 1860000     312.794281   -4599.486683   -5532.799400       0.000000       0.000000       0.000000   25086.031365  -31636.543229    1017.712464 
 1870000     309.085506   -4576.288305   -5498.534815       0.000000       0.000000       0.000000   25065.815017  -31634.888913    1070.539081 
 1880000     302.643561   -4608.631221   -5511.656312       0.000000       0.000000       0.000000   25040.381412  -31636.048590    1084.010865 
 1890000     300.738641   -4645.960335   -5543.301543       0.000000       0.000000       0.000000   25060.051316  -31640.952396    1037.599537 
 1900000     294.383985   -4710.062526   -5588.442770       0.000000       0.000000       0.000000   24927.529905  -31639.446225    1123.473550 
 1910000     295.268198   -4631.815797   -5512.834347       0.000000       0.000000       0.000000   25101.368957  -31637.019836    1022.816533 
 1920000     310.780356   -4596.153539   -5523.457125       0.000000       0.000000       0.000000   25062.328735  -31635.066914    1049.281054 
 1930000     304.406789   -4572.362528   -5480.648723       0.000000       0.000000       0.000000   25060.453096  -31632.084725    1090.982905 
 1940000     295.594406   -4662.433326   -5544.425214       0.000000       0.000000       0.000000   24974.103600  -31634.535092    1116.006278 
 1950000     303.847460   -4632.453822   -5539.071097       0.000000       0.000000       0.000000   25014.684447  -31641.407740    1087.652197 
 1960000     301.106719   -4635.929335   -5534.368812       0.000000       0.000000       0.000000   24969.206204  -31634.190448    1130.615432 
 1970000     310.593025   -4626.289285   -5553.033915       0.000000       0.000000       0.000000   25033.457289  -31638.409807    1051.918603 
 1980000     302.314664   -4614.050651   -5516.094381       0.000000       0.000000       0.000000   25029.052542  -31637.827437    1092.680514 
 1990000     303.209936   -4602.001088   -5506.716123       0.000000       0.000000       0.000000   25073.486412  -31636.097082    1055.894547 
 2000000     296.693025   -4576.650253   -5461.920190       0.000000       0.000000       0.000000   25075.995425  -31634.812820    1096.897205 
 2010000     302.527526   -4686.480395   -5589.159263       0.000000       0.000000       0.000000   24926.000810  -31636.584650    1121.424577 
 2020000     305.123760   -4603.048116   -5513.473601       0.000000       0.000000       0.000000   25055.298586  -31634.377741    1065.605554 
 2030000     292.301061   -4646.440123   -5518.605358       0.000000       0.000000       0.000000   25039.183068  -31635.538000    1077.749575 
 2040000     288.086608   -4713.594497   -5573.184684       0.000000       0.000000       0.000000   24965.140791  -31636.049526    1097.724051 
 2050000     298.327839   -4642.718188   -5532.866068       0.000000       0.000000       0.000000   24994.011582  -31639.592726    1112.715076 
 2060000     303.606158   -4640.727403   -5546.624681       0.000000       0.000000       0.000000   24988.589013  -31636.437655    1101.223960 
 2070000     288.218099   -4655.538854   -5515.521385       0.000000       0.000000       0.000000   25099.993511  -31634.796419    1019.281523 
 2080000     307.069640   -4647.092219   -5563.323803       0.000000       0.000000       0.000000   25011.830626  -31641.233049    1066.078620 
 2090000     302.583269   -4597.134035   -5499.979227       0.000000       0.000000       0.000000   25115.341164  -31639.816749    1024.496358 
 2100000     294.559832   -4632.801689   -5511.706624       0.000000       0.000000       0.000000   25095.767171  -31636.458599    1028.984805 
 2110000     292.264715   -4648.111532   -5520.168317       0.000000       0.000000       0.000000   25044.225835  -31636.605851    1072.211699 
 2120000     306.687037   -4556.919732   -5472.009709       0.000000       0.000000       0.000000   25092.165817  -31637.761713    1073.586187 
 2130000     292.036908   -4702.579897   -5573.956954       0.000000       0.000000       0.000000   24927.725275  -31637.054459    1135.372229 
 2140000     295.103875   -4689.371325   -5569.899571       0.000000       0.000000       0.000000   25025.570488  -31636.636458    1041.166399 
 2150000     300.663282   -4646.141883   -5543.258236       0.000000       0.000000       0.000000   25030.500667  -31638.228742    1064.469838 
 2160000     298.941555   -4648.629760   -5540.608841       0.000000       0.000000       0.000000   24927.355591  -31637.475873    1169.511442 
 2170000     296.056340   -4685.909811   -5569.280012       0.000000       0.000000       0.000000   24899.935079  -31638.763303    1169.548212 
 2180000     307.042422   -4632.563855   -5548.714228       0.000000       0.000000       0.000000   24973.178123  -31637.883138    1115.990788 
 2190000     298.993775   -4592.533851   -5484.668745       0.000000       0.000000       0.000000   25156.314155  -31636.530226     995.547327 
 2200000     303.702277   -4652.846445   -5559.030523       0.000000       0.000000       0.000000   24981.054788  -31635.169857    1095.084546 
 2210000     308.743113   -4642.861006   -5564.085885       0.000000       0.000000       0.000000   24917.666793  -31641.374436    1159.621759 
 2220000     296.641877   -4672.431408   -5557.548728       0.000000       0.000000       0.000000   25028.356627  -31634.779076    1048.873721 
 2230000     294.888709   -4632.780638   -5512.666871       0.000000       0.000000       0.000000   24986.372001  -31639.301778    1140.262905 
 2240000     301.861370   -4644.422307   -5545.113503       0.000000       0.000000       0.000000   25035.902567  -31639.801610    1058.785539 
 2250000     311.032593   -4634.724666   -5562.780874       0.000000       0.000000       0.000000   24966.701841  -31635.712060    1106.229344 
 2260000     304.285844   -4708.990095   -5616.915416       0.000000       0.000000       0.000000   24941.016507  -31639.572122    1081.640199 
 2270000     304.419450   -4606.472016   -5514.795989       0.000000       0.000000       0.000000   25034.391475  -31635.095669    1085.908205 
 2280000     301.325919   -4605.303569   -5504.397091       0.000000       0.000000       0.000000   25042.963778  -31634.735910    1087.375041 
 2290000     296.313265   -4617.331508   -5501.468319       0.000000       0.000000       0.000000   25040.331611  -31633.980634    1092.180704 
 2300000     305.905136   -4609.635684   -5522.392633       0.000000       0.000000       0.000000   25079.344998  -31640.220604    1038.482973 
 2310000     296.368261   -4608.158091   -5492.458998       0.000000       0.000000       0.000000   25015.917537  -31635.688407    1127.311872 
 2320000     281.279570   -4700.651503   -5539.930913       0.000000       0.000000       0.000000   25030.759682  -31636.644924    1065.954329 
 2330000     297.419313   -4603.194727   -5490.631754       0.000000       0.000000       0.000000   25068.555258  -31635.073246    1075.886234 
 2340000     297.673498   -4575.449253   -5463.644716       0.000000       0.000000       0.000000   25125.844631  -31636.501883    1047.012535 
 2350000     296.181725   -4617.198636   -5500.942960       0.000000       0.000000       0.000000   25089.193408  -31640.124161    1049.987794 
 2360000     295.918046   -4625.730775   -5508.688336       0.000000       0.000000       0.000000   25132.197969  -31637.610069     996.723763 
 2370000     298.354364   -4615.430814   -5505.657839       0.000000       0.000000       0.000000   25054.771935  -31635.783772    1075.353998 
 2380000     286.096046   -4775.710748   -5629.361514       0.000000       0.000000       0.000000   24872.994053  -31640.950138    1138.594571 
 2390000     297.085196   -4602.867924   -5489.308017       0.000000       0.000000       0.000000   25070.922092  -31636.538400    1076.308290 
 2400000     280.770132   -4711.508892   -5549.268247       0.000000       0.000000       0.000000   24981.365257  -31639.161818    1108.528314 
 2410000     299.927806   -4658.193224   -5553.115069       0.000000       0.000000       0.000000   25076.970880  -31639.269314    1009.183365 
 2420000     301.711715   -4621.285669   -5521.530328       0.000000       0.000000       0.000000   25041.193198  -31635.440751    1072.717226 
 2430000     289.857876   -4681.905822   -5546.781104       0.000000       0.000000       0.000000   25018.210243  -31637.585498    1072.594151 
 2440000     300.885324   -4738.817787   -5636.596667       0.000000       0.000000       0.000000   24827.028200  -31640.116163    1176.491296 
 2450000     297.356917   -4622.815590   -5510.066441       0.000000       0.000000       0.000000   25078.651514  -31635.590819    1046.872864 
 2460000     299.798170   -4649.663815   -5544.198855       0.000000       0.000000       0.000000   24982.570369  -31634.095477    1107.326253 
 2470000     291.334765   -4631.824687   -5501.106696       0.000000       0.000000       0.000000   25051.609761  -31636.728297    1084.011840 
 2480000     296.180692   -4636.297032   -5520.038275       0.000000       0.000000       0.000000   25058.597692  -31636.425216    1057.789250 
 2490000     295.981241   -4645.680375   -5528.826495       0.000000       0.000000       0.000000   25001.647222  -31636.720081    1106.246364 
 2500000     304.063858   -4607.582115   -5514.845076       0.000000       0.000000       0.000000   25059.802211  -31641.311193    1066.663906 
 2510000     284.260229   -4658.871957   -5507.045031       0.000000       0.000000       0.000000   24998.416469  -31636.940849    1131.479349 
 2520000     303.938186   -4640.419269   -5547.307250       0.000000       0.000000       0.000000   24994.520819  -31638.610425    1096.782356 
 2530000     310.857619   -4633.866877   -5561.401000       0.000000       0.000000       0.000000   24994.371992  -31635.643768    1079.870776 
 2540000     294.038698   -4667.401178   -5544.751159       0.000000       0.000000       0.000000   25002.161481  -31639.900644    1092.988004 
 2550000     306.890347   -4579.790269   -5495.486882       0.000000       0.000000       0.000000   25075.254659  -31632.860867    1062.119325 
 2560000     280.302406   -4667.402603   -5503.766360       0.000000       0.000000       0.000000   25086.907896  -31639.264891    1048.590636 
 2570000     299.111126   -4699.681171   -5592.166217       0.000000       0.000000       0.000000   24941.157091  -31639.169697    1105.846389 
 2580000     293.200315   -4678.758471   -5553.606891       0.000000       0.000000       0.000000   24973.948279  -31640.354388    1112.799219 
 2590000     306.709689   -4654.358497   -5569.516063       0.000000       0.000000       0.000000   24908.668468  -31635.692816    1157.508284 
 2600000     292.202620   -4621.391773   -5493.263279       0.000000       0.000000       0.000000   25096.611363  -31636.041099    1046.166457 
 2610000     294.943437   -4539.433405   -5419.482937       0.000000       0.000000       0.000000   25174.550083  -31638.248013    1044.214993 
 2620000     282.191888   -4629.160192   -5471.161768       0.000000       0.000000       0.000000   25111.268087  -31635.971445    1053.541590 
 2630000     300.618118   -4652.865998   -5549.847590       0.000000       0.000000       0.000000   25064.916414  -31634.096496    1019.332492 
 2640000     299.510601   -4573.037780   -5466.714773       0.000000       0.000000       0.000000   25187.006823  -31636.135413     982.413817 
 2650000     287.851744   -4672.014628   -5530.904030       0.000000       0.000000       0.000000   24951.474704  -31637.099017    1154.720282 
 2660000     289.615876   -4731.517913   -5595.671115       0.000000       0.000000       0.000000   24941.384476  -31639.227462    1102.171871 
 2670000     303.946789   -4639.155705   -5546.069356       0.000000       0.000000       0.000000   24916.432436  -31637.573575    1175.071783 
 2680000     294.050229   -4653.122194   -5530.506579       0.000000       0.000000       0.000000   25031.674434  -31636.159215    1073.978202 
 2690000     294.489013   -4597.034484   -5475.728111       0.000000       0.000000       0.000000   25072.102739  -31635.836873    1088.006023 
 2700000     302.805546   -4605.234167   -5508.742587       0.000000       0.000000       0.000000   25046.186431  -31641.122639    1086.193620 
 2710000     306.794457   -4655.127373   -5570.537869       0.000000       0.000000       0.000000   24937.490658  -31640.625921    1132.597395 
 2720000     310.740134   -4670.937533   -5598.121104       0.000000       0.000000       0.000000   24915.278753  -31640.744655    1127.344798 
 2730000     297.613996   -4612.662423   -5500.680344       0.000000       0.000000       0.000000   25022.679807  -31637.310435    1113.950283 
 2740000     305.034000   -4580.075727   -5490.233387       0.000000       0.000000       0.000000   25084.097825  -31633.586114    1059.254901 
 2750000     313.991231   -4597.141880   -5534.026046       0.000000       0.000000       0.000000   25089.037930  -31636.029221    1012.965245 
 2760000     302.095155   -4612.673090   -5514.061852       0.000000       0.000000       0.000000   25003.410272  -31636.271483    1118.799359 
 2770000     293.220594   -4716.792051   -5591.700978       0.000000       0.000000       0.000000   24954.826549  -31638.628522    1092.100995 
 2780000     289.659547   -4644.874868   -5509.158378       0.000000       0.000000       0.000000   25076.390492  -31638.393867    1052.844997 
 2790000     297.773403   -4631.889462   -5520.383020       0.000000       0.000000       0.000000   24987.294198  -31634.241025    1126.563807 
 2800000     310.859000   -4605.367501   -5532.905743       0.000000       0.000000       0.000000   25014.632120  -31636.181895    1088.644031 
 2810000     309.452250   -4556.161456   -5479.502249       0.000000       0.000000       0.000000   25007.129786  -31635.339218    1148.707183 
 2820000     309.853526   -4579.145976   -5503.684094       0.000000       0.000000       0.000000   25062.266495  -31634.843857    1068.893268 
 2830000     297.915965   -4647.307479   -5536.226413       0.000000       0.000000       0.000000   25006.713666  -31633.299931    1090.359852 
 2840000     330.367641   -4519.044823   -5504.792769       0.000000       0.000000       0.000000   25077.131599  -31634.626976    1052.702608 
 2850000     303.306197   -4658.323767   -5563.326024       0.000000       0.000000       0.000000   24948.271771  -31634.317312    1122.719516 
 2860000     310.827463   -4647.486186   -5574.930328       0.000000       0.000000       0.000000   24956.768537  -31638.169326    1106.470460 
 2870000     293.133197   -4660.774838   -5535.422992       0.000000       0.000000       0.000000   24975.900960  -31631.134698    1119.810747 
 2880000     311.362943   -4611.527254   -5540.569156       0.000000       0.000000       0.000000   25016.373744  -31637.722788    1080.779888 
 2890000     292.951200   -4680.897270   -5555.002383       0.000000       0.000000       0.000000   24901.797556  -31633.358968    1176.559029 
 2900000     298.211396   -4663.318894   -5553.119330       0.000000       0.000000       0.000000   24945.219751  -31640.737335    1142.398254 
 2910000     317.413950   -4520.717239   -5467.814084       0.000000       0.000000       0.000000   25088.890078  -31636.159160    1079.454999 
 2920000     304.257913   -4656.082770   -5563.924748       0.000000       0.000000       0.000000   24960.088287  -31638.354745    1114.341710 
 2930000     285.835753   -4660.292697   -5513.166804       0.000000       0.000000       0.000000   25032.110006  -31634.457883    1089.181072 
 2940000     318.205383   -4569.544589   -5519.002903       0.000000       0.000000       0.000000   25013.779584  -31635.044886    1102.262399 
 2950000     312.452106   -4606.837723   -5539.129461       0.000000       0.000000       0.000000   25019.440955  -31635.662645    1077.092229 
 2960000     306.749776   -4602.333037   -5517.610216       0.000000       0.000000       0.000000   25000.021810  -31635.309584    1117.677559 
 2970000     299.709246   -4621.609577   -5515.879285       0.000000       0.000000       0.000000   25048.750938  -31636.619916    1071.989694 
 2980000     303.473094   -4525.592677   -5431.092920       0.000000       0.000000       0.000000   25148.716837  -31633.204990    1053.395234 
 2990000     293.450874   -4663.394630   -5538.990666       0.000000       0.000000       0.000000   25023.840522  -31637.515186    1074.683997 
 3000000     290.275607   -4687.233871   -5553.355575       0.000000       0.000000       0.000000   24951.032823  -31641.649418    1137.261020 
 3010000     296.997745   -4760.322621   -5646.501778       0.000000       0.000000       0.000000   24819.822981  -31639.444196    1173.119436 
 3020000     305.247804   -4626.144470   -5536.940079       0.000000       0.000000       0.000000   25024.714291  -31638.846957    1077.192587 
 3030000     314.651898   -4579.180055   -5518.035512       0.000000       0.000000       0.000000   25044.516930  -31636.709335    1074.156893 
 3040000     282.286840   -4701.273265   -5543.558158       0.000000       0.000000       0.000000   25035.138340  -31639.548384    1060.851885 
 3050000     288.441036   -4760.338181   -5620.985909       0.000000       0.000000       0.000000   24822.944194  -31635.246542    1191.316438 
 3060000     312.859630   -4624.189117   -5557.696822       0.000000       0.000000       0.000000   25008.797275  -31638.085282    1071.591186 
 3070000     307.548753   -4615.254869   -5532.916028       0.000000       0.000000       0.000000   25037.793658  -31637.160519    1066.450833 
 3080000     293.807370   -4679.663818   -5556.323562       0.000000       0.000000       0.000000   25002.375291  -31638.673536    1079.974684 
 3090000     299.958315   -4580.374827   -5475.387704       0.000000       0.000000       0.000000   25113.881345  -31637.408298    1048.139249 
 3100000     283.679096   -4670.015392   -5516.454486       0.000000       0.000000       0.000000   25023.720710  -31637.015860    1096.840664 
 3110000     309.777315   -4599.345210   -5523.655932       0.000000       0.000000       0.000000   24992.328073  -31637.966578    1121.982573 
 3120000     309.747688   -4589.664360   -5513.886680       0.000000       0.000000       0.000000   25093.002952  -31637.568670    1030.679038 
 3130000     298.399068   -4670.877621   -5561.238031       0.000000       0.000000       0.000000   24960.740882  -31639.398728    1117.419815 
 3140000     293.269832   -4605.591203   -5480.647047       0.000000       0.000000       0.000000   25000.594561  -31634.328663    1153.087054 
 3150000     309.069085   -4631.456598   -5553.654109       0.000000       0.000000       0.000000   24929.633732  -31638.401918    1155.114077 
 3160000     295.966138   -4611.372663   -5494.473720       0.000000       0.000000       0.000000   25040.931578  -31633.350411    1097.945113 
 3170000     295.314832   -4594.554199   -5475.711895       0.000000       0.000000       0.000000   25120.661916  -31638.146659    1041.772848 
 3180000     291.914293   -4691.927315   -5562.938516       0.000000       0.000000       0.000000   24919.061407  -31636.742442    1154.742519 
 3190000     293.217206   -4666.417527   -5541.316346       0.000000       0.000000       0.000000   25026.577292  -31637.759130    1069.865493 
 3200000     294.361481   -4649.209974   -5527.523071       0.000000       0.000000       0.000000   25010.905213  -31638.310757    1099.882473 
 3210000     294.843857   -4677.112187   -5556.864594       0.000000       0.000000       0.000000   24916.105712  -31640.227677    1167.257371 
 3220000     292.731704   -4725.798209   -5599.248391       0.000000       0.000000       0.000000   24917.200671  -31637.158974    1120.709913 
 3230000     309.690856   -4616.373328   -5540.426074       0.000000       0.000000       0.000000   25057.014692  -31635.571350    1038.130584 
 3240000     310.829820   -4591.898310   -5519.349485       0.000000       0.000000       0.000000   24997.675785  -31634.952874    1117.927604 
 3250000     298.412700   -4661.631236   -5552.032324       0.000000       0.000000       0.000000   24951.336330  -31639.513809    1136.145155 
 3260000     294.842278   -4608.731662   -5488.479356       0.000000       0.000000       0.000000   25043.041114  -31636.799894    1105.279424 
 3270000     315.222757   -4611.405747   -5551.964528       0.000000       0.000000       0.000000   24942.819191  -31640.886768    1146.103050 
 3280000     308.088868   -4657.705652   -5576.978401       0.000000       0.000000       0.000000   24952.793968  -31637.351696    1107.579327 
 3290000     307.038345   -4573.327410   -5489.465618       0.000000       0.000000       0.000000   25098.347723  -31638.224741    1050.411399 
 3300000     301.497671   -4644.974120   -5544.580114       0.000000       0.000000       0.000000   25012.256677  -31635.865654    1079.028863 
 3310000     299.264369   -4638.608243   -5531.550533       0.000000       0.000000       0.000000   25038.992332  -31638.538647    1067.995782 
 3320000     302.302408   -4643.269244   -5545.276405       0.000000       0.000000       0.000000   24938.161899  -31634.319301    1150.880997 
 3330000     299.313917   -4656.961626   -5550.051758       0.000000       0.000000       0.000000   24957.345492  -31636.939533    1129.542284 
 3340000     301.858409   -4623.698939   -5524.381300       0.000000       0.000000       0.000000   25017.794730  -31636.535667    1094.359637 
 3350000     294.838915   -4646.878808   -5526.616467       0.000000       0.000000       0.000000   25023.439160  -31634.851208    1084.795581 
 3360000     300.551438   -4621.757104   -5518.539738       0.000000       0.000000       0.000000   24987.705209  -31636.556815    1130.311868 
 3370000     294.615157   -4707.477922   -5586.547934       0.000000       0.000000       0.000000   24915.397912  -31642.355324    1140.409478 
 3380000     306.524023   -4587.113546   -5501.717124       0.000000       0.000000       0.000000   25023.296249  -31635.252466    1110.239094 
 3390000     304.578892   -4573.762160   -5482.561876       0.000000       0.000000       0.000000   25102.921866  -31634.233723    1048.749981 
 3400000     290.541852   -4714.704343   -5581.620465       0.000000       0.000000       0.000000   24924.680061  -31641.369098    1135.068571 
 3410000     304.587296   -4601.686609   -5510.511398       0.000000       0.000000       0.000000   25019.298146  -31633.158932    1103.349387 
 3420000     301.419810   -4637.500437   -5536.874112       0.000000       0.000000       0.000000   24979.970532  -31639.359825    1122.515181 
 3430000     312.387538   -4659.573635   -5591.672715       0.000000       0.000000       0.000000   24942.241071  -31639.927341    1106.013555 
 3440000     300.156915   -4579.718806   -5475.324264       0.000000       0.000000       0.000000   25109.294983  -31641.011380    1056.392133 
 3450000     294.203949   -4707.725229   -5585.568284       0.000000       0.000000       0.000000   24972.483379  -31638.999229    1080.947566 
 3460000     302.538464   -4605.547363   -5508.258865       0.000000       0.000000       0.000000   25053.354964  -31636.243823    1074.629993 
 3470000     300.663651   -4633.750885   -5530.868338       0.000000       0.000000       0.000000   24996.663501  -31634.623750    1107.091912 
 3480000     310.379571   -4571.186137   -5497.293863       0.000000       0.000000       0.000000   25077.846732  -31635.931293    1060.790698 
 3490000     297.148426   -4646.926345   -5533.555103       0.000000       0.000000       0.000000   25001.667364  -31636.323887    1101.101421 
 3500000     296.067600   -4682.480312   -5565.884111       0.000000       0.000000       0.000000   24977.691290  -31636.765319    1093.189919 
 3510000     293.559042   -4592.126546   -5468.045333       0.000000       0.000000       0.000000   25122.980727  -31635.931022    1044.904962 
 3520000     311.358359   -4582.285937   -5511.314163       0.000000       0.000000       0.000000   24999.669838  -31638.103947    1127.119946 
 3530000     296.830362   -4670.223053   -5555.902774       0.000000       0.000000       0.000000   24927.886650  -31641.244741    1157.455317 
 3540000     294.877909   -4636.906739   -5516.760747       0.000000       0.000000       0.000000   25047.830148  -31638.493697    1073.902802 
 3550000     290.769731   -4664.739959   -5532.336026       0.000000       0.000000       0.000000   25001.518035  -31639.824573    1105.970511 
 3560000     316.382067   -4617.673851   -5561.691769       0.000000       0.000000       0.000000   25022.494579  -31632.011229    1047.824881 
 3570000     307.128416   -4619.102459   -5535.509419       0.000000       0.000000       0.000000   24955.988828  -31636.172175    1144.673928 
 3580000     291.843880   -4646.273647   -5517.074748       0.000000       0.000000       0.000000   25129.818586  -31638.565011     991.671677 
 3590000     310.149048   -4613.849755   -5539.269651       0.000000       0.000000       0.000000   25003.159159  -31635.211667    1092.782857 
 3600000     304.006037   -4589.863449   -5496.953883       0.000000       0.000000       0.000000   25083.269077  -31635.683080    1055.460120 
 3610000     298.817167   -4665.458588   -5557.066518       0.000000       0.000000       0.000000   25005.604899  -31636.755114    1074.083696 
 3620000     305.848177   -4587.671041   -5500.258037       0.000000       0.000000       0.000000   25079.888664  -31630.893092    1050.746391 
 3630000     302.694886   -4617.766099   -5520.944333       0.000000       0.000000       0.000000   24967.328911  -31638.311799    1150.038555 
 3640000     289.550323   -4660.948944   -5524.906552       0.000000       0.000000       0.000000   25037.835801  -31642.513464    1079.771112 
 3650000     298.151985   -4646.483962   -5536.107130       0.000000       0.000000       0.000000   25000.552849  -31638.432034    1101.772055 
 3660000     290.937540   -4681.011361   -5549.108133       0.000000       0.000000       0.000000   25003.087992  -31638.422423    1086.226298 
 3670000     295.437197   -4640.574203   -5522.097010       0.000000       0.000000       0.000000   25003.850668  -31637.587123    1111.639445 
 3680000     301.991022   -4644.645551   -5545.723602       0.000000       0.000000       0.000000   24958.677104  -31636.416867    1132.016162 
 3690000     308.676131   -4623.208014   -5544.233033       0.000000       0.000000       0.000000   24998.749679  -31636.532259    1093.549548 
 3700000     305.453500   -4584.410046   -5495.819408       0.000000       0.000000       0.000000   25035.139668  -31636.774512    1105.815436 
 3710000     307.421889   -4592.447557   -5509.730181       0.000000       0.000000       0.000000   25114.225381  -31638.849659    1014.894097 
 3720000     297.320340   -4618.125939   -5505.267653       0.000000       0.000000       0.000000   25059.675438  -31635.585934    1070.642843 
 3730000     304.007967   -4624.166341   -5531.262533       0.000000       0.000000       0.000000   25030.561331  -31640.037551    1078.213688 
 3740000     299.686472   -4639.609031   -5533.810786       0.000000       0.000000       0.000000   25008.024821  -31636.569264    1094.733657 
 3750000     285.492699   -4655.828357   -5507.678863       0.000000       0.000000       0.000000   25058.262744  -31635.723770    1069.782164 
 3760000     298.513565   -4697.679177   -5588.381223       0.000000       0.000000       0.000000   24973.251676  -31635.983929    1074.351030 
 3770000     309.127831   -4610.392453   -5532.765249       0.000000       0.000000       0.000000   24933.134614  -31636.395970    1170.496107 
 3780000     315.916859   -4559.765049   -5502.394887       0.000000       0.000000       0.000000   24949.878414  -31638.335706    1186.062406 
 3790000     307.012997   -4650.516800   -5566.579374       0.000000       0.000000       0.000000   24990.272747  -31636.365828    1079.513707 
 3800000     307.344812   -4638.305994   -5555.358636       0.000000       0.000000       0.000000   25000.692224  -31637.657733    1081.606873 
 3810000     290.437562   -4694.285385   -5560.890328       0.000000       0.000000       0.000000   24957.625331  -31635.253402    1116.737743 
 3820000     322.864723   -4551.589601   -5514.950410       0.000000       0.000000       0.000000   24973.099567  -31636.402475    1148.352498 
 3830000     285.822082   -4688.065245   -5540.898561       0.000000       0.000000       0.000000   24985.632012  -31635.829465    1109.298892 
 3840000     297.157573   -4646.403795   -5533.059845       0.000000       0.000000       0.000000   25013.786334  -31636.768266    1089.922087 
 3850000     297.547719   -4631.083845   -5518.904010       0.000000       0.000000       0.000000   25030.524481  -31635.802750    1086.374260 
 3860000     298.108366   -4639.237042   -5528.730060       0.000000       0.000000       0.000000   24930.804286  -31639.291748    1179.757402 
 3870000     301.797495   -4637.756728   -5538.257335       0.000000       0.000000       0.000000   25004.060296  -31631.233683    1088.916052 
 3880000     318.027302   -4601.791382   -5550.718339       0.000000       0.000000       0.000000   24917.527319  -31639.317825    1171.072167 
 3890000     291.700396   -4648.992992   -5519.365967       0.000000       0.000000       0.000000   25054.209497  -31637.507195    1063.931731 
 3900000     306.931047   -4590.854624   -5506.672677       0.000000       0.000000       0.000000   25050.607451  -31637.080463    1079.800335 
 3910000     294.102994   -4700.219929   -5577.761755       0.000000       0.000000       0.000000   25007.359547  -31637.503219    1052.381916 
 3920000     289.431481   -4701.175922   -5564.778931       0.000000       0.000000       0.000000   24932.798653  -31638.994137    1141.416553 
 3930000     302.040621   -4630.973818   -5532.199863       0.000000       0.000000       0.000000   25061.469959  -31635.191460    1041.521637 
 3940000     282.854162   -4706.554101   -5550.531763       0.000000       0.000000       0.000000   24998.171988  -31635.638897    1086.935146 
 3950000     313.626335   -4610.456882   -5546.252273       0.000000       0.000000       0.000000   24987.347437  -31634.777016    1101.177306 
 3960000     296.285845   -4658.079468   -5542.134465       0.000000       0.000000       0.000000   24986.821463  -31635.264621    1106.308693 
 3970000     298.526650   -4605.460109   -5496.201200       0.000000       0.000000       0.000000   25060.349285  -31634.426826    1077.876341 
 3980000     299.471803   -4610.677914   -5504.239142       0.000000       0.000000       0.000000   24992.077674  -31636.740097    1140.423281 
 3990000     309.640805   -4536.991183   -5460.894586       0.000000       0.000000       0.000000   25120.514907  -31634.057726    1052.648233 
 4000000     308.857596   -4649.895248   -5571.461719       0.000000       0.000000       0.000000   24950.550669  -31639.920662    1117.908273 
 4010000     291.113239   -4693.808031   -5562.429054       0.000000       0.000000       0.000000   24941.932046  -31639.668067    1135.306967 
 4020000     297.695295   -4693.931364   -5582.191863       0.000000       0.000000       0.000000   24964.555394  -31637.049825    1090.302567 
 4030000     294.859627   -4658.319036   -5538.118498       0.000000       0.000000       0.000000   24962.636312  -31635.863645    1135.108835 
 4040000     294.398220   -4704.955558   -5583.378276       0.000000       0.000000       0.000000   24921.830446  -31640.292487    1135.083765 
 4050000     302.873093   -4586.746181   -5490.456148       0.000000       0.000000       0.000000   25085.595900  -31633.852620    1057.800572 
 4060000     300.393363   -4631.483093   -5527.794066       0.000000       0.000000       0.000000   25000.709934  -31639.117635    1110.613635 
 4070000     291.660283   -4658.947925   -5529.201212       0.000000       0.000000       0.000000   25038.660465  -31636.223071    1068.361394 
 4080000     311.568538   -4591.951698   -5521.607055       0.000000       0.000000       0.000000   25032.349663  -31639.406458    1085.449741 
 4090000     301.193121   -4692.416803   -5591.114084       0.000000       0.000000       0.000000   24934.060446  -31638.143112    1112.968582 
 4100000     284.593657   -4700.130930   -5549.298883       0.000000       0.000000       0.000000   24948.677876  -31640.871979    1142.895220 
 4110000     299.954898   -4669.393820   -5564.396503       0.000000       0.000000       0.000000   24991.379870  -31634.779787    1079.003414 
 4120000     303.008652   -4585.281010   -5489.395457       0.000000       0.000000       0.000000   24998.650915  -31633.144750    1145.098379 
 4130000     296.767964   -4601.095037   -5486.588575       0.000000       0.000000       0.000000   25122.518259  -31633.494086    1024.387252 
 4140000     286.773795   -4722.996916   -5578.669944       0.000000       0.000000       0.000000   24902.179200  -31638.237947    1157.388804 
 4150000     294.599399   -4650.298872   -5529.321866       0.000000       0.000000       0.000000   25038.845552  -31637.752625    1069.585206 
 4160000     310.534097   -4629.442023   -5556.010823       0.000000       0.000000       0.000000   24968.064175  -31636.252363    1112.177365 
 4170000     296.788541   -4695.066524   -5580.621461       0.000000       0.000000       0.000000   24949.764582  -31635.757296    1105.371252 
 4180000     283.011111   -4730.239367   -5574.685333       0.000000       0.000000       0.000000   24998.681249  -31634.613464    1061.246883 
 4190000     289.656416   -4585.085550   -5449.359716       0.000000       0.000000       0.000000   25031.762845  -31637.639266    1156.516706 
 4200000     298.493161   -4703.775821   -5594.416987       0.000000       0.000000       0.000000   24964.332060  -31635.685142    1076.936095 
 4210000     290.917981   -4681.535017   -5549.573429       0.000000       0.000000       0.000000   24993.034727  -31635.985113    1093.376957 
 4220000     293.890266   -4686.621953   -5563.529043       0.000000       0.000000       0.000000   24951.880110  -31639.695959    1124.286805 
 4230000     297.194478   -4574.523505   -5461.289672       0.000000       0.000000       0.000000   25112.212632  -31633.461052    1059.958748 
 4240000     301.044910   -4651.472886   -5549.727937       0.000000       0.000000       0.000000   25019.497742  -31637.308904    1068.083225 
 4250000     298.316013   -4655.840073   -5545.952665       0.000000       0.000000       0.000000   24985.977482  -31635.166708    1103.236560 
 4260000     300.890639   -4644.650900   -5542.445638       0.000000       0.000000       0.000000   25007.521616  -31633.684585    1083.717331 
 4270000     304.336235   -4636.948789   -5545.024465       0.000000       0.000000       0.000000   25029.006455  -31642.507807    1068.476888 
 4280000     299.248285   -4643.501715   -5536.396012       0.000000       0.000000       0.000000   24997.886574  -31641.549679    1107.267093 
 4290000     305.934766   -4589.970461   -5502.815819       0.000000       0.000000       0.000000   25034.043850  -31633.640398    1096.780730 
 4300000     296.333153   -4631.545711   -5515.741863       0.000000       0.000000       0.000000   24978.266042  -31638.622661    1144.614756 
 4310000     294.791059   -4636.621422   -5516.216289       0.000000       0.000000       0.000000   25016.049452  -31637.850767    1105.585026 
 4320000     290.071851   -4662.743389   -5528.257126       0.000000       0.000000       0.000000   25017.344824  -31639.891566    1094.289616 
 4330000     304.431711   -4601.650986   -5510.011543       0.000000       0.000000       0.000000   24985.111731  -31634.553029    1139.429755 
 4340000     303.305135   -4621.949852   -5526.948943       0.000000       0.000000       0.000000   24968.447709  -31633.789956    1138.393304 
 4350000     300.629618   -4669.715774   -5566.731679       0.000000       0.000000       0.000000   24922.944165  -31641.137155    1151.461311 
 4360000     304.789300   -4623.600258   -5533.027786       0.000000       0.000000       0.000000   25073.477562  -31638.387637    1031.882289 
 4370000     293.860785   -4648.584303   -5525.403428       0.000000       0.000000       0.000000   25089.990236  -31639.566587    1024.172924 
 4380000     303.607163   -4597.453845   -5503.354121       0.000000       0.000000       0.000000   25046.522827  -31634.000544    1084.123596 
 4390000     300.258917   -4634.420478   -5530.330289       0.000000       0.000000       0.000000   25025.793607  -31633.720815    1077.596918 
 4400000     304.901012   -4658.429385   -5568.190236       0.000000       0.000000       0.000000   24962.358665  -31638.747890    1108.198988 
 4410000     299.850478   -4599.799843   -5494.490960       0.000000       0.000000       0.000000   25091.980593  -31636.782413    1050.310859 
 4420000     296.344768   -4634.398128   -5518.628939       0.000000       0.000000       0.000000   24969.777169  -31637.525470    1149.119362 
 4430000     298.797977   -4660.956444   -5552.507118       0.000000       0.000000       0.000000   24952.862200  -31636.540779    1131.171462 
 4440000     300.489705   -4667.887736   -5564.486171       0.000000       0.000000       0.000000   24998.617342  -31638.987528    1075.884015 
 4450000     300.842318   -4582.786588   -5480.437146       0.000000       0.000000       0.000000   25087.689181  -31631.568193    1063.441865 
 4460000     289.983516   -4732.577007   -5597.827172       0.000000       0.000000       0.000000   24925.390752  -31640.362288    1117.144364 
 4470000     316.646689   -4620.750660   -5565.558155       0.000000       0.000000       0.000000   24947.361276  -31639.073656    1126.154224 
 4480000     291.219589   -4674.844557   -5543.782906       0.000000       0.000000       0.000000   25047.830727  -31633.387718    1041.774085 
 4490000     304.177529   -4642.541761   -5550.143891       0.000000       0.000000       0.000000   24987.871895  -31638.600363    1100.584578 
 4500000     298.340693   -4600.840931   -5491.027164       0.000000       0.000000       0.000000   25099.003024  -31635.790504    1045.760316 
 4510000     303.564239   -4637.999151   -5543.771353       0.000000       0.000000       0.000000   24938.568375  -31637.764524    1155.424796 
 4520000     297.811373   -4658.812160   -5547.419014       0.000000       0.000000       0.000000   24975.407594  -31638.027599    1115.200992 
 4530000     297.887080   -4665.659338   -5554.492084       0.000000       0.000000       0.000000   24987.643640  -31636.343560    1094.207836 
 4540000     327.687559   -4621.367374   -5599.118518       0.000000       0.000000       0.000000   24899.240215  -31641.134365    1142.775632 
 4550000     290.547544   -4640.506846   -5507.439952       0.000000       0.000000       0.000000   25040.984238  -31636.072195    1087.648005 
 4560000     291.870604   -4633.482302   -5504.363142       0.000000       0.000000       0.000000   25031.221591  -31636.367268    1100.782535 
 4570000     307.797622   -4569.366594   -5487.770326       0.000000       0.000000       0.000000   25094.393719  -31633.515428    1051.351382 
 4580000     296.807011   -4615.062572   -5500.672620       0.000000       0.000000       0.000000   25100.627439  -31636.478221    1035.178162 
 4590000     289.319437   -4648.681317   -5511.950010       0.000000       0.000000       0.000000   25026.326493  -31636.412015    1098.135512 
 4600000     302.057448   -4592.586178   -5493.862432       0.000000       0.000000       0.000000   25052.351951  -31638.877517    1092.663135 
 4610000     300.652902   -4636.915602   -5534.000982       0.000000       0.000000       0.000000   24968.202158  -31639.157035    1136.953894 
 4620000     297.355652   -4636.629080   -5523.876158       0.000000       0.000000       0.000000   24986.506778  -31637.236799    1126.853864 
 4630000     298.210461   -4658.532757   -5548.330406       0.000000       0.000000       0.000000   24949.102702  -31634.468141    1137.035033 
 4640000     295.085877   -4684.367311   -5564.841854       0.000000       0.000000       0.000000   24988.585449  -31637.869221    1084.441918 
 4650000     291.602477   -4633.670833   -5503.751638       0.000000       0.000000       0.000000   25148.161378  -31636.869399     984.956383 
 4660000     297.174790   -4652.060894   -5538.768315       0.000000       0.000000       0.000000   24972.000304  -31636.803340    1126.034720 
 4670000     303.827597   -4630.508632   -5537.066639       0.000000       0.000000       0.000000   24989.848003  -31634.802742    1107.888099 
 4680000     300.726570   -4641.509793   -5538.814983       0.000000       0.000000       0.000000   24985.072256  -31636.660570    1112.773330 
 4690000     298.146159   -4688.042710   -5577.648495       0.000000       0.000000       0.000000   24927.014089  -31639.602091    1134.939508 
 4700000     304.377415   -4594.514113   -5502.712662       0.000000       0.000000       0.000000   25067.105281  -31634.981038    1065.163095 
 4710000     314.611854   -4609.151483   -5547.887458       0.000000       0.000000       0.000000   25058.238124  -31638.572984    1032.447402 
 4720000     301.718079   -4611.242760   -5511.506406       0.000000       0.000000       0.000000   25035.829465  -31634.234324    1086.898453 
 4730000     292.818414   -4714.195996   -5587.904905       0.000000       0.000000       0.000000   24950.165555  -31639.181835    1101.111376 
 4740000     304.057459   -4664.615924   -5571.859791       0.000000       0.000000       0.000000   25014.705444  -31639.307860    1052.742624 
 4750000     309.628280   -4648.396360   -5572.262392       0.000000       0.000000       0.000000   24939.530304  -31636.543788    1124.751092 
 4760000     302.963341   -4647.383634   -5551.362882       0.000000       0.000000       0.000000   24895.300852  -31638.193055    1191.529321 
 4770000     307.658870   -4631.424103   -5549.413827       0.000000       0.000000       0.000000   24943.927551  -31635.663571    1142.322194 
 4780000     297.656240   -4705.543272   -5593.687241       0.000000       0.000000       0.000000   25019.482251  -31632.891313    1019.721821 
 4790000     305.874629   -4602.379511   -5515.045434       0.000000       0.000000       0.000000   25107.315557  -31637.787304    1015.426312 
 4800000     296.901862   -4660.574440   -5546.467501       0.000000       0.000000       0.000000   24922.388512  -31636.897563    1168.041550 
 4810000     293.022542   -4653.613598   -5527.931579       0.000000       0.000000       0.000000   24968.495467  -31639.623151    1143.196105 
 4820000     283.854767   -4644.330280   -5491.293540       0.000000       0.000000       0.000000   25130.790018  -31638.088059    1016.004502 
 4830000     309.116224   -4596.295171   -5518.633333       0.000000       0.000000       0.000000   25078.130524  -31639.523970    1042.760112 
 4840000     297.192223   -4639.775684   -5526.535124       0.000000       0.000000       0.000000   25058.692739  -31637.315580    1052.087717 
 4850000     302.448557   -4652.522554   -5554.965793       0.000000       0.000000       0.000000   25021.792379  -31641.618363    1064.860191 
 4860000     306.316244   -4529.480298   -5443.463906       0.000000       0.000000       0.000000   25062.352761  -31636.030347    1130.213680 
 4870000     311.581510   -4581.536827   -5511.230889       0.000000       0.000000       0.000000   25025.148631  -31633.707508    1097.327988 
 4880000     307.996279   -4644.489083   -5563.485565       0.000000       0.000000       0.000000   25023.088898  -31638.060684    1051.486221 
 4890000     310.774066   -4642.846567   -5570.131384       0.000000       0.000000       0.000000   24904.324467  -31639.204582    1164.748731 
 4900000     301.853327   -4614.569408   -5515.236607       0.000000       0.000000       0.000000   24947.997615  -31634.875419    1171.641197 
 4910000     298.738154   -4680.083307   -5571.455481       0.000000       0.000000       0.000000   24992.106148  -31634.966546    1071.404917 
 4920000     291.166663   -4695.068122   -5563.848549       0.000000       0.000000       0.000000   24990.301202  -31635.976516    1081.826766 
 4930000     288.973720   -4608.379518   -5470.616661       0.000000       0.000000       0.000000   25096.069824  -31638.191151    1071.504666 
 4940000     301.688253   -4602.558572   -5502.733224       0.000000       0.000000       0.000000   25091.144886  -31631.435341    1037.557231 
 4950000     296.389108   -4595.970847   -5480.333959       0.000000       0.000000       0.000000   25110.926051  -31638.305245    1047.045235 
 4960000     292.695760   -4691.899392   -5565.242324       0.000000       0.000000       0.000000   24993.604459  -31635.611003    1076.764220 
 4970000     296.526896   -4673.265573   -5558.039815       0.000000       0.000000       0.000000   24985.773748  -31636.530679    1092.717116 
 4980000     294.227123   -4643.279056   -5521.191258       0.000000       0.000000       0.000000   25122.223861  -31637.718409     994.303291 
 4990000     299.786974   -4609.120243   -5503.621876       0.000000       0.000000       0.000000   24988.938252  -31633.515065    1140.954937 
 5000000     290.150062   -4709.191597   -5574.938700       0.000000       0.000000       0.000000   24969.428000  -31634.107582    1089.740882 
Loop time of 9806.42 on 8 procs for 5000000 steps with 1503 atoms

Performance: 44.053 ns/day, 0.545 hours/ns, 509.870 timesteps/s
99.2% CPU use with 8 MPI tasks x 1 OpenMP threads

MPI task timing breakdown:
Section |  min time  |  avg time  |  max time  |%varavg| %total
---------------------------------------------------------------
Pair    | 4857       | 4875       | 4901.9     |  18.9 | 49.71
Bond    | 1.408      | 1.5956     | 1.7213     |   8.0 |  0.02
Kspace  | 2627.9     | 2653.3     | 2671.7     |  25.3 | 27.06
Neigh   | 351.35     | 351.44     | 351.52     |   0.3 |  3.58
Comm    | 452.37     | 471.13     | 489.15     |  53.4 |  4.80
Output  | 2.0111     | 2.4097     | 2.6364     |  11.7 |  0.02
Modify  | 1334.6     | 1393.4     | 1444.8     |  89.4 | 14.21
Other   |            | 58.11      |            |       |  0.59

Nlocal:    187.875 ave 201 max 176 min
Histogram: 2 0 0 1 1 0 3 0 0 1
Nghost:    4592.25 ave 4663 max 4516 min
Histogram: 2 1 0 1 0 0 0 1 1 2
Neighs:    67493.4 ave 71467 max 62498 min
Histogram: 1 1 0 1 0 0 1 2 1 1

Total # of neighbors = 539947
Ave neighs/atom = 359.246
Ave special neighs/atom = 2
Neighbor list builds = 216838
Dangerous builds = 0
Total wall time: 3:16:16
