LAMMPS (3 Mar 2020)
  using 1 OpenMP thread(s) per MPI task
Reading data file ...
  orthogonal box = (0 0 0) to (24 24 24)
  2 by 2 by 2 MPI processor grid
  reading atoms ...
  1503 atoms
  scanning bonds ...
  2 = max bonds/atom
  scanning angles ...
  1 = max angles/atom
  reading bonds ...
  1002 bonds
  reading angles ...
  501 angles
Finding 1-2 1-3 1-4 neighbors ...
  special bond factors lj:   0          0          0         
  special bond factors coul: 0          0          0         
  2 = max # of 1-2 neighbors
  1 = max # of 1-3 neighbors
  1 = max # of 1-4 neighbors
  2 = max # of special neighbors
  special bonds CPU = 0.00138791 secs
  read_data CPU = 0.010263 secs
Setting atom values ...
  1 settings made for charge
Setting atom values ...
  2 settings made for charge
WARNING: Using 'neigh_modify every 1 delay 0 check yes' setting during minimization (src/min.cpp:190)
PPPM initialization ...
  using 12-bit tables for long-range coulomb (src/kspace.cpp:332)
  G vector (1/distance) = 0.315108
  grid = 24 24 24
  stencil order = 5
  estimated absolute RMS force accuracy = 0.00171076
  estimated relative force accuracy = 5.15191e-06
  using double precision MKL FFT
  3d grid and FFT values/proc = 6859 1728
Neighbor list info ...
  update every 1 steps, delay 0 steps, check yes
  max neighbors/atom: 2000, page size: 100000
  master list distance cutoff = 12
  ghost atom cutoff = 12
  binsize = 6, bins = 4 4 4
  3 neighbor lists, perpetual/occasional/extra = 3 0 0
  (1) pair lj/cut/coul/long, perpetual, skip from (3)
      attributes: half, newton on
      pair build: skip
      stencil: none
      bin: none
  (2) pair lj/cut/coul/long/soft, perpetual, skip from (3)
      attributes: half, newton on
      pair build: skip
      stencil: none
      bin: none
  (3) neighbor class addition, perpetual
      attributes: half, newton on
      pair build: half/bin/newton
      stencil: half/bin/3d/newton
      bin: standard
Setting up cg style minimization ...
  Unit style    : real
  Current step  : 0
Per MPI rank memory allocation (min/avg/max) = 10.15 | 10.15 | 10.16 Mbytes
Step Temp E_pair E_mol TotEng Press 
       0            0   -234.82614   0.56510211   -234.26104    17945.501 
      66            0   -6754.0946    356.05583   -6398.0388   -3751.4576 
Loop time of 0.254831 on 8 procs for 66 steps with 1503 atoms

98.2% CPU use with 8 MPI tasks x 1 OpenMP threads

Minimization stats:
  Stopping criterion = energy tolerance
  Energy initial, next-to-last, final = 
        -234.261038324     -6392.72635358     -6398.03880304
  Force two-norm initial, final = 680.771 103.825
  Force max component initial, final = 40.0667 8.60097
  Final line search alpha, max atom move = 0.00380817 0.032754
  Iterations, force evaluations = 66 116

MPI task timing breakdown:
Section |  min time  |  avg time  |  max time  |%varavg| %total
---------------------------------------------------------------
Pair    | 0.17117    | 0.17482    | 0.18215    |   0.8 | 68.60
Bond    | 0.00060806 | 0.00063257 | 0.00067188 |   0.0 |  0.25
Kspace  | 0.053243   | 0.060797   | 0.064602   |   1.4 | 23.86
Neigh   | 0.0043802  | 0.0043922  | 0.0044087  |   0.0 |  1.72
Comm    | 0.011235   | 0.011556   | 0.011895   |   0.2 |  4.53
Output  | 0          | 0          | 0          |   0.0 |  0.00
Modify  | 0          | 0          | 0          |   0.0 |  0.00
Other   |            | 0.002629   |            |       |  1.03

Nlocal:    187.875 ave 191 max 185 min
Histogram: 1 0 0 2 0 3 1 0 0 1
Nghost:    4884.75 ave 4898 max 4874 min
Histogram: 2 1 0 0 0 3 0 0 1 1
Neighs:    72795.1 ave 75312 max 71581 min
Histogram: 2 2 0 2 1 0 0 0 0 1

Total # of neighbors = 582361
Ave neighs/atom = 387.466
Ave special neighs/atom = 2
Neighbor list builds = 3
Dangerous builds = 0
Finding SHAKE clusters ...
  0 = # of size 2 clusters
  0 = # of size 3 clusters
  0 = # of size 4 clusters
  501 = # of frozen angles
  find clusters CPU = 0.000267316 secs
PPPM initialization ...
  using 12-bit tables for long-range coulomb (src/kspace.cpp:332)
  G vector (1/distance) = 0.315108
  grid = 24 24 24
  stencil order = 5
  estimated absolute RMS force accuracy = 0.00171076
  estimated relative force accuracy = 5.15191e-06
  using double precision MKL FFT
  3d grid and FFT values/proc = 6859 1728
Neighbor list info ...
  update every 1 steps, delay 10 steps, check yes
  max neighbors/atom: 2000, page size: 100000
  master list distance cutoff = 12
  ghost atom cutoff = 12
  binsize = 6, bins = 4 4 4
  3 neighbor lists, perpetual/occasional/extra = 3 0 0
  (1) pair lj/cut/coul/long, perpetual, skip from (3)
      attributes: half, newton on
      pair build: skip
      stencil: none
      bin: none
  (2) pair lj/cut/coul/long/soft, perpetual, skip from (3)
      attributes: half, newton on
      pair build: skip
      stencil: none
      bin: none
  (3) neighbor class addition, perpetual
      attributes: half, newton on
      pair build: half/bin/newton
      stencil: half/bin/3d/newton
      bin: standard
Setting up Verlet run ...
  Unit style    : real
  Current step  : 66
  Time step     : 1
Per MPI rank memory allocation (min/avg/max) = 9.904 | 9.905 | 9.906 Mbytes
Step Temp TotEng PotEng E_bond E_angle E_dihed E_coul E_long E_vdwl 
      66     300.000000   -5858.957372   -6754.094630       0.000000       0.000000       0.000000   23679.468752  -31793.663975    1360.100593 
   10000     296.164784   -4664.114179   -5547.807955       0.000000       0.000000       0.000000   25082.683773  -31785.830524    1155.338797 
   20000     296.046353   -4622.597328   -5505.937730       0.000000       0.000000       0.000000   25166.416562  -31789.953944    1117.599652 
   30000     298.372190   -4666.911405   -5557.191619       0.000000       0.000000       0.000000   25180.351279  -31789.738283    1052.195385 
   40000     293.179053   -4716.924697   -5591.709677       0.000000       0.000000       0.000000   25041.670432  -31789.222780    1155.842671 
   50000     313.422351   -4589.569940   -5524.756686       0.000000       0.000000       0.000000   25195.222844  -31790.152786    1070.173257 
   60000     305.240256   -4648.857342   -5559.630429       0.000000       0.000000       0.000000   25159.605009  -31788.649532    1069.414094 
   70000     298.863101   -4591.117794   -5482.862783       0.000000       0.000000       0.000000   25217.483624  -31783.401452    1083.055045 
   80000     301.614408   -4576.574877   -5476.529190       0.000000       0.000000       0.000000   25200.573701  -31786.439732    1109.336840 
   90000     299.600924   -4609.963499   -5503.909998       0.000000       0.000000       0.000000   25144.762307  -31787.533807    1138.861502 
  100000     310.422169   -4647.000125   -5573.234956       0.000000       0.000000       0.000000   25097.779612  -31789.326355    1118.311788 
  110000     284.272138   -4655.492035   -5503.700643       0.000000       0.000000       0.000000   25184.771683  -31786.886521    1098.414195 
  120000     290.049408   -4679.984553   -5545.431325       0.000000       0.000000       0.000000   25213.150921  -31788.584542    1030.002296 
  130000     294.761769   -4690.579883   -5570.087354       0.000000       0.000000       0.000000   25137.612095  -31788.246133    1080.546684 
  140000     299.431755   -4599.274172   -5492.715908       0.000000       0.000000       0.000000   25191.634222  -31787.055847    1102.705717 
  150000     292.913085   -4591.498097   -5465.489483       0.000000       0.000000       0.000000   25224.101955  -31785.185257    1095.593819 
  160000     304.739054   -4635.113315   -5544.390919       0.000000       0.000000       0.000000   25146.398470  -31784.787717    1093.998328 
  170000     296.742392   -4602.217802   -5487.635039       0.000000       0.000000       0.000000   25279.530441  -31781.433380    1014.267901 
  180000     283.580062   -4669.625516   -5515.769113       0.000000       0.000000       0.000000   25118.359634  -31788.125749    1153.997002 
  190000     296.711849   -4708.408965   -5593.735067       0.000000       0.000000       0.000000   25055.418970  -31789.534480    1140.380442 
  200000     294.817866   -4624.451763   -5504.126615       0.000000       0.000000       0.000000   25225.785096  -31784.629553    1054.717842 
  210000     302.077678   -4657.138181   -5558.474796       0.000000       0.000000       0.000000   25170.290699  -31788.580333    1059.814838 
  220000     290.689782   -4651.119692   -5518.477206       0.000000       0.000000       0.000000   25183.379975  -31785.219370    1083.362189 
  230000     311.452303   -4522.652686   -5451.961221       0.000000       0.000000       0.000000   25247.177651  -31782.612373    1083.473501 
  240000     298.511999   -4629.237186   -5519.934560       0.000000       0.000000       0.000000   25203.422703  -31784.880565    1061.523302 
  250000     303.817101   -4596.918173   -5503.444861       0.000000       0.000000       0.000000   25167.141864  -31785.439436    1114.852711 
  260000     306.400069   -4625.601193   -5539.834917       0.000000       0.000000       0.000000   25157.509930  -31788.986244    1091.641397 
  270000     302.900288   -4551.681260   -5455.472371       0.000000       0.000000       0.000000   25221.447728  -31785.643322    1108.723222 
  280000     291.905976   -4705.902188   -5576.888572       0.000000       0.000000       0.000000   25153.922861  -31783.957351    1053.145918 
  290000     295.529586   -4657.841139   -5539.639618       0.000000       0.000000       0.000000   25197.556892  -31789.884816    1052.688306 
  300000     289.911562   -4687.575239   -5552.610709       0.000000       0.000000       0.000000   25215.111434  -31787.364682    1019.642538 
  310000     294.566475   -4669.563975   -5548.488729       0.000000       0.000000       0.000000   25194.353088  -31789.462889    1046.621072 
  320000     308.865975   -4644.727615   -5566.319089       0.000000       0.000000       0.000000   25148.648651  -31786.884264    1071.916523 
  330000     297.121800   -4598.794277   -5485.343587       0.000000       0.000000       0.000000   25183.419150  -31782.824467    1114.061731 
  340000     304.363787   -4559.799887   -5467.957774       0.000000       0.000000       0.000000   25196.957117  -31787.318019    1122.403129 
  350000     292.841941   -4628.615266   -5502.394372       0.000000       0.000000       0.000000   25200.782122  -31783.223261    1080.046767 
  360000     311.828718   -4531.203949   -5461.635626       0.000000       0.000000       0.000000   25258.920464  -31780.242061    1059.685971 
  370000     287.892789   -4668.603427   -5527.615298       0.000000       0.000000       0.000000   25146.326966  -31784.195493    1110.253229 
  380000     307.909300   -4610.156883   -5528.893838       0.000000       0.000000       0.000000   25115.084596  -31786.649358    1142.670923 
  390000     296.739409   -4672.259890   -5557.668227       0.000000       0.000000       0.000000   25094.878120  -31784.900926    1132.354579 
  400000     296.811034   -4655.558605   -5541.180656       0.000000       0.000000       0.000000   25102.832351  -31786.089481    1142.076474 
  410000     289.537316   -4638.857765   -5502.776562       0.000000       0.000000       0.000000   25199.289674  -31786.068935    1084.002698 
  420000     287.621189   -4649.705919   -5507.907393       0.000000       0.000000       0.000000   25210.027686  -31786.415591    1068.480512 
  430000     287.687245   -4713.561442   -5571.960016       0.000000       0.000000       0.000000   25114.779265  -31786.696609    1099.957327 
  440000     290.376653   -4650.536003   -5516.959206       0.000000       0.000000       0.000000   25231.103926  -31785.922285    1037.859154 
  450000     317.289196   -4581.396251   -5528.120853       0.000000       0.000000       0.000000   25103.848140  -31788.596926    1156.627934 
  460000     292.379158   -4617.848667   -5490.246926       0.000000       0.000000       0.000000   25229.273765  -31784.028844    1064.508152 
  470000     302.858523   -4629.062641   -5532.729135       0.000000       0.000000       0.000000   25197.222240  -31789.325709    1059.374335 
  480000     310.066440   -4596.328223   -5521.501632       0.000000       0.000000       0.000000   25183.749612  -31782.334271    1077.083026 
  490000     293.407235   -4643.390029   -5518.855855       0.000000       0.000000       0.000000   25158.262942  -31789.295379    1112.176581 
  500000     298.480202   -4631.165966   -5521.768466       0.000000       0.000000       0.000000   25181.612222  -31783.033825    1079.653137 
  510000     300.062687   -4678.683612   -5574.007914       0.000000       0.000000       0.000000   25080.277763  -31787.518010    1133.232334 
  520000     295.649345   -4652.291343   -5534.447158       0.000000       0.000000       0.000000   25117.930527  -31782.869671    1130.491987 
  530000     293.957701   -4697.522556   -5574.630858       0.000000       0.000000       0.000000   25110.675938  -31788.308618    1103.001821 
  540000     291.616930   -4665.615098   -5535.739030       0.000000       0.000000       0.000000   25164.298648  -31783.800674    1083.762997 
  550000     304.122013   -4598.740267   -5506.176750       0.000000       0.000000       0.000000   25195.044886  -31785.910503    1084.688868 
  560000     313.854667   -4638.425482   -5574.902168       0.000000       0.000000       0.000000   25098.250490  -31786.403283    1113.250625 
  570000     297.521207   -4668.133800   -5555.874857       0.000000       0.000000       0.000000   25136.940199  -31789.142720    1096.327664 
  580000     303.980485   -4657.105853   -5564.120046       0.000000       0.000000       0.000000   25153.783109  -31789.175890    1071.272734 
  590000     304.174428   -4653.303770   -5560.896649       0.000000       0.000000       0.000000   25121.652346  -31786.266130    1103.717135 
  600000     290.941422   -4702.950173   -5571.058528       0.000000       0.000000       0.000000   25107.119657  -31788.919935    1110.741749 
  610000     300.053932   -4652.680125   -5547.978305       0.000000       0.000000       0.000000   25187.106623  -31786.247349    1051.162421 
  620000     298.243523   -4645.269285   -5535.165584       0.000000       0.000000       0.000000   25149.755970  -31784.400094    1099.478540 
  630000     302.878321   -4587.336356   -5491.061922       0.000000       0.000000       0.000000   25252.146672  -31784.278194    1041.069599 
  640000     314.149994   -4596.863078   -5534.220959       0.000000       0.000000       0.000000   25202.292672  -31782.542403    1046.028772 
  650000     306.079306   -4646.513683   -5559.790317       0.000000       0.000000       0.000000   25126.515252  -31787.283360    1100.977791 
  660000     300.330917   -4603.907729   -5500.032375       0.000000       0.000000       0.000000   25213.908442  -31787.877247    1073.936430 
  670000     307.704473   -4538.435692   -5456.561486       0.000000       0.000000       0.000000   25272.156952  -31788.426088    1059.707650 
  680000     296.763313   -4609.787193   -5495.266853       0.000000       0.000000       0.000000   25192.336186  -31779.915457    1092.312418 
  690000     305.028026   -4592.237510   -5502.377347       0.000000       0.000000       0.000000   25275.397167  -31786.874415    1009.099901 
  700000     289.523155   -4629.152774   -5493.029318       0.000000       0.000000       0.000000   25232.642430  -31784.694910    1059.023162 
  710000     291.301908   -4621.299373   -5490.483343       0.000000       0.000000       0.000000   25225.528305  -31788.394822    1072.383174 
  720000     309.067986   -4667.867322   -5590.061552       0.000000       0.000000       0.000000   25070.672414  -31786.609048    1125.875081 
  730000     302.568812   -4616.837335   -5519.639391       0.000000       0.000000       0.000000   25170.044794  -31789.455847    1099.771663 
  740000     297.770653   -4623.453323   -5511.938676       0.000000       0.000000       0.000000   25166.979373  -31784.121051    1105.203003 
  750000     294.805480   -4735.250878   -5614.888776       0.000000       0.000000       0.000000   25088.804490  -31788.803856    1085.110590 
  760000     305.349286   -4660.270203   -5571.368612       0.000000       0.000000       0.000000   25130.255977  -31782.903466    1081.278877 
  770000     317.710346   -4561.583704   -5509.564929       0.000000       0.000000       0.000000   25215.797431  -31785.570487    1060.208127 
  780000     299.649690   -4582.382858   -5476.474864       0.000000       0.000000       0.000000   25254.807095  -31785.833607    1054.551648 
  790000     299.387470   -4657.861412   -5551.171008       0.000000       0.000000       0.000000   25156.772516  -31786.886183    1078.942660 
  800000     307.110132   -4530.099204   -5446.451609       0.000000       0.000000       0.000000   25275.082595  -31784.045016    1062.510812 
  810000     287.153704   -4644.709935   -5501.516531       0.000000       0.000000       0.000000   25242.914891  -31787.084765    1042.653343 
  820000     295.962422   -4608.260753   -5491.350722       0.000000       0.000000       0.000000   25197.753047  -31786.643216    1097.539447 
  830000     304.430789   -4618.474727   -5526.832533       0.000000       0.000000       0.000000   25180.973233  -31785.756903    1077.951137 
  840000     291.212117   -4630.507486   -5499.423538       0.000000       0.000000       0.000000   25237.786647  -31784.774808    1047.564624 
  850000     289.690433   -4678.448644   -5542.824311       0.000000       0.000000       0.000000   25062.119131  -31782.273524    1177.330082 
  860000     290.703513   -4623.938642   -5491.337126       0.000000       0.000000       0.000000   25165.003206  -31783.899511    1127.559179 
  870000     307.289460   -4643.639155   -5560.526636       0.000000       0.000000       0.000000   25146.156096  -31788.238747    1081.556016 
  880000     283.278525   -4651.965042   -5497.208916       0.000000       0.000000       0.000000   25228.596019  -31787.310206    1061.505272 
  890000     310.409244   -4578.114526   -5504.310793       0.000000       0.000000       0.000000   25273.559377  -31785.626887    1007.756717 
  900000     305.985061   -4569.971951   -5482.967380       0.000000       0.000000       0.000000   25187.822910  -31783.741094    1112.950804 
  910000     302.599827   -4641.988322   -5544.882920       0.000000       0.000000       0.000000   25234.123966  -31785.042056    1006.035170 
  920000     296.331390   -4601.082484   -5485.273377       0.000000       0.000000       0.000000   25222.138315  -31788.469956    1081.058264 
  930000     294.969269   -4651.873532   -5532.000140       0.000000       0.000000       0.000000   25152.451179  -31785.748428    1101.297108 
  940000     303.776470   -4598.963337   -5505.368792       0.000000       0.000000       0.000000   25152.214145  -31781.728399    1124.145462 
  950000     311.227917   -4564.527628   -5493.166641       0.000000       0.000000       0.000000   25240.068564  -31784.638528    1051.403323 
  960000     289.358332   -4603.689148   -5467.073895       0.000000       0.000000       0.000000   25230.404636  -31786.553873    1089.075342 
  970000     293.233420   -4594.228064   -5469.175262       0.000000       0.000000       0.000000   25245.828856  -31784.016228    1069.012110 
  980000     283.755250   -4654.797076   -5501.463398       0.000000       0.000000       0.000000   25155.684233  -31779.219051    1122.071420 
  990000     297.519847   -4670.043360   -5557.780360       0.000000       0.000000       0.000000   25159.650588  -31789.964583    1072.533634 
 1000000     304.651444   -4634.211894   -5543.228087       0.000000       0.000000       0.000000   25116.841062  -31786.427515    1126.358366 
 1000066     297.089354   -4654.892183   -5541.344683       0.000000       0.000000       0.000000   25122.669964  -31787.449007    1123.434361 
Loop time of 1973.07 on 8 procs for 1000000 steps with 1503 atoms

Performance: 43.790 ns/day, 0.548 hours/ns, 506.826 timesteps/s
99.2% CPU use with 8 MPI tasks x 1 OpenMP threads

MPI task timing breakdown:
Section |  min time  |  avg time  |  max time  |%varavg| %total
---------------------------------------------------------------
Pair    | 976.7      | 983.82     | 992.55     |  17.1 | 49.86
Bond    | 0.27451    | 0.32132    | 0.34052    |   3.8 |  0.02
Kspace  | 523.88     | 532.77     | 540.2      |  23.4 | 27.00
Neigh   | 70.778     | 70.818     | 70.861     |   0.3 |  3.59
Comm    | 91.701     | 94.78      | 98.732     |  19.3 |  4.80
Output  | 0.0041733  | 0.0046465  | 0.0078077  |   1.8 |  0.00
Modify  | 267.66     | 278.3      | 288.54     |  31.3 | 14.11
Other   |            | 12.25      |            |       |  0.62

Nlocal:    187.875 ave 199 max 181 min
Histogram: 2 1 0 1 1 2 0 0 0 1
Nghost:    4647 ave 4693 max 4598 min
Histogram: 2 0 0 0 2 1 0 1 0 2
Neighs:    68302 ave 71154 max 65654 min
Histogram: 2 0 0 1 0 2 2 0 0 1

Total # of neighbors = 546416
Ave neighs/atom = 363.55
Ave special neighs/atom = 2
Neighbor list builds = 43461
Dangerous builds = 0
PPPM initialization ...
  using 12-bit tables for long-range coulomb (src/kspace.cpp:332)
  G vector (1/distance) = 0.313364
  grid = 24 24 24
  stencil order = 5
  estimated absolute RMS force accuracy = 0.00184015
  estimated relative force accuracy = 5.54155e-06
  using double precision MKL FFT
  3d grid and FFT values/proc = 6859 1728
Neighbor list info ...
  update every 1 steps, delay 10 steps, check yes
  max neighbors/atom: 2000, page size: 100000
  master list distance cutoff = 12
  ghost atom cutoff = 12
  binsize = 6, bins = 5 5 5
  3 neighbor lists, perpetual/occasional/extra = 3 0 0
  (1) pair lj/cut/coul/long, perpetual, skip from (3)
      attributes: half, newton on
      pair build: skip
      stencil: none
      bin: none
  (2) pair lj/cut/coul/long/soft, perpetual, skip from (3)
      attributes: half, newton on
      pair build: skip
      stencil: none
      bin: none
  (3) neighbor class addition, perpetual
      attributes: half, newton on
      pair build: half/bin/newton
      stencil: half/bin/3d/newton
      bin: standard
Setting up Verlet run ...
  Unit style    : real
  Current step  : 0
  Time step     : 1
Per MPI rank memory allocation (min/avg/max) = 10.91 | 10.91 | 10.91 Mbytes
Step Temp TotEng PotEng E_bond E_angle E_dihed E_coul E_long E_vdwl 
       0     297.089354   -4654.891016   -5541.343515       0.000000       0.000000       0.000000   24947.107485  -31611.885361    1123.434361 
   10000     294.549697   -4719.788606   -5598.663300       0.000000       0.000000       0.000000   24850.627576  -31607.651554    1158.360677 
   20000     303.983089   -4576.776592   -5483.798553       0.000000       0.000000       0.000000   25051.817309  -31610.009683    1074.393821 
   30000     304.662615   -4608.023540   -5517.073065       0.000000       0.000000       0.000000   24940.315581  -31608.731935    1151.343289 
   40000     294.932206   -4655.732937   -5535.748957       0.000000       0.000000       0.000000   24964.714701  -31610.679513    1110.215855 
   50000     302.936057   -4645.597974   -5549.495812       0.000000       0.000000       0.000000   24988.033798  -31612.870316    1075.340705 
   60000     306.877664   -4590.821766   -5506.480534       0.000000       0.000000       0.000000   25059.452161  -31611.844172    1045.911478 
   70000     294.293309   -4624.476173   -5502.585858       0.000000       0.000000       0.000000   25035.475526  -31614.387410    1076.326026 
   80000     310.008313   -4557.634068   -5482.634038       0.000000       0.000000       0.000000   25072.304705  -31608.174289    1053.235546 
   90000     293.352524   -4615.810472   -5491.113053       0.000000       0.000000       0.000000   25089.006186  -31611.567799    1031.448559 
  100000     303.016635   -4594.953741   -5499.092007       0.000000       0.000000       0.000000   24980.070307  -31608.467521    1129.305206 
  110000     308.538848   -4578.224357   -5498.839751       0.000000       0.000000       0.000000   25024.783872  -31609.391486    1085.767862 
  120000     307.812518   -4641.455930   -5559.904107       0.000000       0.000000       0.000000   24931.877608  -31612.874106    1121.092391 
  130000     315.033919   -4593.886526   -5533.881855       0.000000       0.000000       0.000000   24948.551831  -31609.702791    1127.269104 
  140000     293.914294   -4660.597590   -5537.576374       0.000000       0.000000       0.000000   24895.072136  -31611.474908    1178.826397 
  150000     308.352244   -4591.990830   -5512.049438       0.000000       0.000000       0.000000   25036.199828  -31609.058188    1060.808923 
  160000     300.352988   -4650.625122   -5546.815620       0.000000       0.000000       0.000000   25042.883903  -31610.471706    1020.772182 
  170000     308.578542   -4571.521014   -5492.254848       0.000000       0.000000       0.000000   25020.170788  -31612.337443    1099.911807 
  180000     314.617017   -4630.368989   -5569.120369       0.000000       0.000000       0.000000   24940.318024  -31608.222309    1098.783916 
  190000     293.334100   -4595.719129   -5470.966736       0.000000       0.000000       0.000000   25065.992279  -31610.296680    1073.337664 
  200000     292.208887   -4678.582809   -5550.473015       0.000000       0.000000       0.000000   24936.389175  -31608.307845    1121.445655 
  210000     298.125614   -4626.534457   -5516.078939       0.000000       0.000000       0.000000   25000.024864  -31612.147296    1096.043494 
  220000     289.272792   -4634.812460   -5497.941972       0.000000       0.000000       0.000000   25045.187322  -31606.924057    1063.794763 
  230000     297.827808   -4605.222140   -5493.878032       0.000000       0.000000       0.000000   25002.844232  -31611.978383    1115.256119 
  240000     310.291153   -4616.184361   -5542.028268       0.000000       0.000000       0.000000   24929.458722  -31612.657418    1141.170427 
  250000     289.062833   -4680.899415   -5543.402454       0.000000       0.000000       0.000000   24997.850389  -31613.194740    1071.941898 
  260000     309.944483   -4564.891636   -5489.701152       0.000000       0.000000       0.000000   25081.096637  -31609.370465    1038.572676 
  270000     299.272595   -4626.503061   -5519.469896       0.000000       0.000000       0.000000   24988.675921  -31608.772205    1100.626387 
  280000     299.994563   -4643.950021   -5539.071055       0.000000       0.000000       0.000000   24948.609509  -31606.272843    1118.592279 
  290000     303.405793   -4606.366819   -5511.666250       0.000000       0.000000       0.000000   25050.660208  -31611.129870    1048.803412 
  300000     295.342777   -4659.714518   -5540.955597       0.000000       0.000000       0.000000   24927.150260  -31609.610762    1141.504904 
  310000     291.787327   -4639.943966   -5510.576326       0.000000       0.000000       0.000000   24996.879691  -31612.575059    1105.119042 
  320000     304.945940   -4668.823643   -5578.718550       0.000000       0.000000       0.000000   24882.971038  -31612.574457    1150.884869 
  330000     303.690958   -4584.933243   -5491.083547       0.000000       0.000000       0.000000   25050.310974  -31611.542714    1070.148193 
  340000     288.996945   -4586.644656   -5448.951100       0.000000       0.000000       0.000000   25070.150560  -31611.941732    1092.840072 
  350000     299.910429   -4639.943905   -5534.813903       0.000000       0.000000       0.000000   25000.814852  -31611.473408    1075.844654 
  360000     285.739595   -4697.617431   -5550.204622       0.000000       0.000000       0.000000   24933.808256  -31612.073408    1128.060531 
  370000     300.322890   -4598.731742   -5494.832436       0.000000       0.000000       0.000000   25077.699941  -31609.618720    1037.086344 
  380000     306.101036   -4613.746466   -5527.087939       0.000000       0.000000       0.000000   24949.251206  -31611.244425    1134.905279 
  390000     285.309772   -4682.764949   -5534.069639       0.000000       0.000000       0.000000   24908.113443  -31611.610526    1169.427444 
  400000     300.034186   -4635.654337   -5530.893599       0.000000       0.000000       0.000000   24943.262847  -31608.155903    1133.999457 
  410000     295.844083   -4584.739530   -5467.476401       0.000000       0.000000       0.000000   25109.683982  -31614.090744    1036.930361 
  420000     303.611476   -4638.355770   -5544.268917       0.000000       0.000000       0.000000   25008.154203  -31612.371434    1059.948313 
  430000     295.513508   -4676.797101   -5558.547606       0.000000       0.000000       0.000000   24970.842443  -31609.995716    1080.605667 
  440000     301.839692   -4589.406375   -5490.032891       0.000000       0.000000       0.000000   25083.498478  -31607.342209    1033.810840 
  450000     304.083919   -4598.252569   -5505.575385       0.000000       0.000000       0.000000   25070.166681  -31610.930366    1035.188300 
  460000     308.617775   -4647.278067   -5568.128964       0.000000       0.000000       0.000000   24874.225302  -31609.518948    1167.164682 
  470000     310.520977   -4621.374715   -5547.904369       0.000000       0.000000       0.000000   24897.162369  -31613.352680    1168.285941 
  480000     297.457517   -4625.733378   -5513.284399       0.000000       0.000000       0.000000   25065.978680  -31609.709742    1030.446662 
  490000     314.301306   -4529.412970   -5467.222335       0.000000       0.000000       0.000000   25025.363015  -31608.556328    1115.970978 
  500000     308.328439   -4643.051001   -5563.038578       0.000000       0.000000       0.000000   24907.123810  -31607.901497    1137.739110 
  510000     299.518729   -4658.809649   -5552.510896       0.000000       0.000000       0.000000   24963.829056  -31606.404348    1090.064395 
  520000     299.493615   -4614.780203   -5508.406515       0.000000       0.000000       0.000000   25037.820099  -31613.136979    1066.910365 
  530000     294.218995   -4670.211172   -5548.099119       0.000000       0.000000       0.000000   24990.311483  -31610.629447    1072.218845 
  540000     311.553070   -4617.388272   -5546.997474       0.000000       0.000000       0.000000   24942.368249  -31608.723296    1119.357574 
  550000     293.245133   -4655.558921   -5530.541070       0.000000       0.000000       0.000000   25007.346769  -31612.189352    1074.301514 
  560000     297.302004   -4614.793549   -5501.880551       0.000000       0.000000       0.000000   24998.317614  -31610.905076    1110.706911 
  570000     301.306944   -4656.760326   -5555.797231       0.000000       0.000000       0.000000   24881.566766  -31610.504407    1173.140410 
  580000     301.615817   -4595.435969   -5495.394487       0.000000       0.000000       0.000000   25032.284540  -31606.724151    1079.045124 
  590000     300.978398   -4560.732251   -5458.788843       0.000000       0.000000       0.000000   25107.115385  -31612.710720    1046.806491 
  600000     296.559391   -4673.408778   -5558.279977       0.000000       0.000000       0.000000   24829.836447  -31606.623601    1218.507176 
  610000     300.112655   -4613.298366   -5508.771764       0.000000       0.000000       0.000000   24988.830959  -31611.432591    1113.829868 
  620000     308.613519   -4556.545320   -5477.383518       0.000000       0.000000       0.000000   25097.384236  -31608.624163    1033.856409 
  630000     291.628606   -4627.076621   -5497.235389       0.000000       0.000000       0.000000   25000.666410  -31607.770734    1109.868934 
  640000     300.615254   -4653.863421   -5550.836468       0.000000       0.000000       0.000000   24954.687866  -31607.986387    1102.462052 
  650000     313.051821   -4539.141585   -5473.222748       0.000000       0.000000       0.000000   25024.711138  -31611.855992    1113.922106 
  660000     312.250969   -4610.261595   -5541.953184       0.000000       0.000000       0.000000   24963.536629  -31607.804270    1102.314456 
  670000     297.475259   -4603.588443   -5491.192403       0.000000       0.000000       0.000000   25070.888746  -31613.533273    1051.452124 
  680000     286.553947   -4637.652804   -5492.669853       0.000000       0.000000       0.000000   25032.137071  -31608.446888    1083.639964 
  690000     304.928050   -4648.834306   -5558.675834       0.000000       0.000000       0.000000   24930.871940  -31614.084041    1124.536267 
  700000     298.835855   -4631.743100   -5523.406793       0.000000       0.000000       0.000000   24975.081542  -31609.549955    1111.061620 
  710000     301.122383   -4667.486045   -5565.972261       0.000000       0.000000       0.000000   25008.270536  -31612.515483    1038.272686 
  720000     286.638340   -4703.575478   -5558.844337       0.000000       0.000000       0.000000   24932.829266  -31612.846915    1121.173312 
  730000     302.331052   -4649.382099   -5551.474730       0.000000       0.000000       0.000000   24953.193495  -31610.362448    1105.694223 
  740000     299.170757   -4638.114090   -5530.777059       0.000000       0.000000       0.000000   25009.753252  -31608.560371    1068.030061 
  750000     313.988304   -4612.030624   -5548.906054       0.000000       0.000000       0.000000   24973.254021  -31611.565781    1089.405706 
  760000     306.494144   -4571.441244   -5485.955669       0.000000       0.000000       0.000000   24996.961302  -31612.891712    1129.974741 
  770000     285.605246   -4648.038022   -5500.224345       0.000000       0.000000       0.000000   25012.222875  -31612.376399    1099.929179 
  780000     303.989198   -4626.944148   -5533.984340       0.000000       0.000000       0.000000   25051.501420  -31610.318148    1024.832389 
  790000     294.868989   -4580.203378   -5460.030772       0.000000       0.000000       0.000000   25129.679099  -31607.720624    1018.010753 
  800000     288.071167   -4686.252573   -5545.796688       0.000000       0.000000       0.000000   24960.014757  -31610.908291    1105.096846 
  810000     300.747832   -4704.555251   -5601.923883       0.000000       0.000000       0.000000   24909.064507  -31611.613661    1100.625271 
  820000     295.455737   -4635.065079   -5516.643206       0.000000       0.000000       0.000000   24947.957720  -31610.363510    1145.762585 
  830000     307.468647   -4613.640736   -5531.062873       0.000000       0.000000       0.000000   25052.687624  -31611.440900    1027.690402 
  840000     306.411479   -4577.514755   -5491.782526       0.000000       0.000000       0.000000   25002.027675  -31611.142872    1117.332670 
  850000     317.832652   -4500.615468   -5448.961631       0.000000       0.000000       0.000000   25063.880121  -31611.723250    1098.881498 
  860000     295.053404   -4650.533045   -5530.910696       0.000000       0.000000       0.000000   25031.822779  -31609.346652    1046.613176 
  870000     302.662987   -4644.393863   -5547.476916       0.000000       0.000000       0.000000   24970.568896  -31613.620211    1095.574399 
  880000     299.915026   -4588.532247   -5483.415960       0.000000       0.000000       0.000000   25073.932186  -31607.568408    1050.220262 
  890000     295.496642   -4636.506975   -5518.207155       0.000000       0.000000       0.000000   25053.751230  -31611.288911    1039.330526 
  900000     307.891627   -4553.738540   -5472.422762       0.000000       0.000000       0.000000   25119.143901  -31609.910305    1018.343643 
  910000     295.354706   -4633.095018   -5514.371691       0.000000       0.000000       0.000000   25002.863004  -31610.352944    1093.118249 
  920000     294.255510   -4676.814248   -5554.811150       0.000000       0.000000       0.000000   24986.571858  -31611.616647    1070.233639 
  930000     310.215128   -4669.464527   -5595.081590       0.000000       0.000000       0.000000   24939.806507  -31609.362353    1074.474256 
  940000     308.962606   -4551.359729   -5473.239528       0.000000       0.000000       0.000000   25005.360884  -31610.806952    1132.206541 
  950000     291.363813   -4680.821547   -5550.190230       0.000000       0.000000       0.000000   24892.493196  -31609.330654    1166.647229 
  960000     312.054816   -4577.749382   -5508.855689       0.000000       0.000000       0.000000   25024.561507  -31610.591832    1077.174636 
  970000     290.469119   -4661.081471   -5527.780573       0.000000       0.000000       0.000000   24997.363479  -31610.303411    1085.159358 
  980000     295.849490   -4638.461255   -5521.214259       0.000000       0.000000       0.000000   24966.873808  -31610.728771    1122.640704 
  990000     295.159592   -4637.512886   -5518.207380       0.000000       0.000000       0.000000   25028.164815  -31606.127103    1059.754907 
 1000000     286.088171   -4750.178936   -5603.806207       0.000000       0.000000       0.000000   24904.103765  -31615.300052    1107.390080 
 1010000     300.175444   -4679.350081   -5575.010829       0.000000       0.000000       0.000000   24926.035619  -31609.222086    1108.175638 
 1020000     306.661816   -4585.553124   -5500.567849       0.000000       0.000000       0.000000   25045.956892  -31608.702419    1062.177678 
 1030000     309.628971   -4615.959358   -5539.827451       0.000000       0.000000       0.000000   25001.831489  -31613.653940    1071.995000 
 1040000     306.024878   -4636.968257   -5550.082492       0.000000       0.000000       0.000000   24971.769887  -31608.738525    1086.886146 
 1050000     306.596500   -4583.848124   -5498.667959       0.000000       0.000000       0.000000   25032.176994  -31608.548114    1077.703160 
 1060000     289.985048   -4668.918740   -5534.173475       0.000000       0.000000       0.000000   24959.594287  -31612.656289    1118.888528 
 1070000     299.540580   -4677.275694   -5571.042137       0.000000       0.000000       0.000000   24952.774992  -31609.933641    1086.116512 
 1080000     281.412518   -4749.547229   -5589.223328       0.000000       0.000000       0.000000   24879.944067  -31611.326068    1142.158673 
 1090000     297.231155   -4635.152119   -5522.027722       0.000000       0.000000       0.000000   24996.336329  -31609.025835    1090.661784 
 1100000     307.073720   -4619.881250   -5536.125007       0.000000       0.000000       0.000000   24964.139647  -31610.958025    1110.693371 
 1110000     296.903780   -4596.541681   -5482.440465       0.000000       0.000000       0.000000   25080.733961  -31612.870583    1049.696156 
 1120000     295.701682   -4649.421245   -5531.733221       0.000000       0.000000       0.000000   24995.213952  -31611.762916    1084.815743 
 1130000     313.826203   -4608.210282   -5544.602038       0.000000       0.000000       0.000000   24968.790756  -31607.018122    1093.625328 
 1140000     305.659285   -4652.685301   -5564.708681       0.000000       0.000000       0.000000   24954.377209  -31611.406641    1092.320751 
 1150000     301.377336   -4598.277092   -5497.524033       0.000000       0.000000       0.000000   25009.852482  -31612.338157    1104.961642 
 1160000     275.612483   -4636.230130   -5458.600137       0.000000       0.000000       0.000000   25128.975516  -31603.763772    1016.188119 
 1170000     291.581810   -4616.724365   -5486.743504       0.000000       0.000000       0.000000   25023.293744  -31606.808153    1096.770905 
 1180000     296.770109   -4645.604762   -5531.104700       0.000000       0.000000       0.000000   25010.685613  -31611.351723    1069.561410 
 1190000     302.405688   -4592.528746   -5494.844075       0.000000       0.000000       0.000000   25032.483299  -31610.552623    1083.225249 
 1200000     307.331603   -4601.824815   -5518.838042       0.000000       0.000000       0.000000   25001.091113  -31602.144653    1082.215498 
 1210000     306.403913   -4669.831689   -5584.076883       0.000000       0.000000       0.000000   24878.367432  -31612.785955    1150.341639 
 1220000     295.941270   -4561.784816   -5444.811672       0.000000       0.000000       0.000000   25117.500248  -31609.500327    1047.188407 
 1230000     282.392332   -4602.806545   -5445.406205       0.000000       0.000000       0.000000   25065.641930  -31611.780093    1100.731958 
 1240000     306.100351   -4589.324383   -5502.663814       0.000000       0.000000       0.000000   25084.844437  -31613.891156    1026.382905 
 1250000     287.509538   -4663.923755   -5521.792086       0.000000       0.000000       0.000000   25001.169019  -31610.532608    1087.571503 
 1260000     280.117349   -4722.230653   -5558.042240       0.000000       0.000000       0.000000   24999.869739  -31608.958727    1051.046748 
 1270000     315.096701   -4602.352781   -5542.535438       0.000000       0.000000       0.000000   24968.460657  -31610.966867    1099.970772 
 1280000     306.015112   -4612.072544   -5525.157638       0.000000       0.000000       0.000000   25019.845832  -31612.392380    1067.388909 
 1290000     297.586969   -4720.816273   -5608.753552       0.000000       0.000000       0.000000   24858.283266  -31615.169863    1148.133045 
 1300000     291.946103   -4615.272276   -5486.378390       0.000000       0.000000       0.000000   25044.837758  -31609.728374    1078.512226 
 1310000     314.092061   -4580.000160   -5517.185180       0.000000       0.000000       0.000000   24949.215606  -31613.292221    1146.891435 
 1320000     286.660072   -4635.465242   -5490.798946       0.000000       0.000000       0.000000   24975.236851  -31610.348473    1144.312676 
 1330000     307.306890   -4545.522150   -5462.461639       0.000000       0.000000       0.000000   25071.830208  -31610.153525    1075.861678 
 1340000     294.571144   -4637.833927   -5516.772615       0.000000       0.000000       0.000000   25005.808115  -31611.270999    1088.690270 
 1350000     316.301792   -4597.282606   -5541.061003       0.000000       0.000000       0.000000   24935.761760  -31609.967912    1133.145149 
 1360000     300.416288   -4607.374142   -5503.753516       0.000000       0.000000       0.000000   25011.108342  -31612.060479    1097.198621 
 1370000     305.300324   -4592.400353   -5503.352668       0.000000       0.000000       0.000000   24993.660284  -31608.719300    1111.706348 
 1380000     292.772039   -4666.973273   -5540.543806       0.000000       0.000000       0.000000   24953.756886  -31607.535085    1113.234392 
 1390000     303.600409   -4645.364855   -5551.244982       0.000000       0.000000       0.000000   24978.324301  -31609.987020    1080.417738 
 1400000     303.743980   -4640.695184   -5547.003696       0.000000       0.000000       0.000000   24903.284000  -31611.315737    1161.028041 
 1410000     303.419171   -4659.244693   -5564.584044       0.000000       0.000000       0.000000   24925.025690  -31609.675497    1120.065764 
 1420000     297.536647   -4603.484844   -5491.271971       0.000000       0.000000       0.000000   25044.831301  -31607.272919    1071.169647 
 1430000     304.914429   -4613.820061   -5523.620946       0.000000       0.000000       0.000000   24977.127666  -31610.998608    1110.249996 
 1440000     304.071060   -4619.543796   -5526.828246       0.000000       0.000000       0.000000   25005.944584  -31612.598844    1079.826015 
 1450000     304.966953   -4620.958378   -5530.915984       0.000000       0.000000       0.000000   24940.949164  -31612.446306    1140.581158 
 1460000     298.115513   -4553.303657   -5442.817998       0.000000       0.000000       0.000000   25114.762941  -31608.789957    1051.209018 
 1470000     304.397849   -4629.558515   -5537.818035       0.000000       0.000000       0.000000   24957.225986  -31608.177362    1113.133342 
 1480000     305.881123   -4600.718076   -5513.403375       0.000000       0.000000       0.000000   25036.609672  -31607.717462    1057.704415 
 1490000     291.426108   -4631.453272   -5501.007829       0.000000       0.000000       0.000000   25035.040953  -31607.565031    1071.516249 
 1500000     290.120268   -4713.134587   -5578.792791       0.000000       0.000000       0.000000   24948.755873  -31607.922523    1080.373859 
 1510000     290.462298   -4722.579081   -5589.257830       0.000000       0.000000       0.000000   24943.021930  -31611.876155    1079.596395 
 1520000     281.725530   -4685.441743   -5526.051805       0.000000       0.000000       0.000000   24981.892633  -31613.889457    1105.945019 
 1530000     317.147304   -4629.354939   -5575.656165       0.000000       0.000000       0.000000   24885.047915  -31612.789814    1152.085735 
 1540000     290.118214   -4599.551226   -5465.203301       0.000000       0.000000       0.000000   25089.977851  -31614.018187    1058.837034 
 1550000     299.187847   -4648.303249   -5541.017212       0.000000       0.000000       0.000000   24976.651521  -31611.267402    1093.598669 
 1560000     315.274880   -4643.357471   -5584.071778       0.000000       0.000000       0.000000   24921.544035  -31614.953878    1109.338065 
 1570000     293.073330   -4653.037456   -5527.506980       0.000000       0.000000       0.000000   24977.449782  -31613.930376    1108.973614 
 1580000     309.485462   -4585.162302   -5508.602194       0.000000       0.000000       0.000000   25047.602687  -31609.649284    1053.444403 
 1590000     302.901228   -4601.854365   -5505.648279       0.000000       0.000000       0.000000   25016.436153  -31609.366879    1087.282447 
 1600000     293.582494   -4634.751066   -5510.739828       0.000000       0.000000       0.000000   25081.321662  -31608.665537    1016.604048 
 1610000     303.021145   -4593.790429   -5497.942151       0.000000       0.000000       0.000000   25003.705026  -31609.861018    1108.213842 
 1620000     298.402968   -4633.968206   -5524.340255       0.000000       0.000000       0.000000   24930.653986  -31609.061188    1154.066947 
 1630000     299.214701   -4654.273306   -5547.067397       0.000000       0.000000       0.000000   24999.657779  -31611.204365    1064.479189 
 1640000     290.497637   -4573.161077   -5439.945270       0.000000       0.000000       0.000000   25127.450699  -31609.931431    1042.535462 
 1650000     303.255074   -4652.517697   -5557.367414       0.000000       0.000000       0.000000   24955.257772  -31612.614000    1099.988814 
 1660000     294.844040   -4642.820720   -5522.573673       0.000000       0.000000       0.000000   24991.254813  -31609.671795    1095.843309 
 1670000     309.411241   -4607.760685   -5530.979118       0.000000       0.000000       0.000000   25009.810653  -31609.640020    1068.850248 
 1680000     306.300068   -4626.392447   -5540.327790       0.000000       0.000000       0.000000   24960.182878  -31613.247313    1112.736645 
 1690000     309.051331   -4642.059191   -5564.203727       0.000000       0.000000       0.000000   24995.388117  -31610.229305    1050.637461 
 1700000     306.956811   -4597.557447   -5513.452374       0.000000       0.000000       0.000000   24982.924996  -31607.402843    1111.025473 
 1710000     288.707924   -4574.444695   -5435.888760       0.000000       0.000000       0.000000   25128.627213  -31610.740175    1046.224202 
 1720000     299.311450   -4675.702502   -5568.785270       0.000000       0.000000       0.000000   24893.837618  -31612.053599    1149.430711 
 1730000     304.673424   -4645.497192   -5554.578968       0.000000       0.000000       0.000000   24926.122484  -31606.398707    1125.697255 
 1740000     294.648160   -4689.653678   -5568.822163       0.000000       0.000000       0.000000   24870.710093  -31613.124491    1173.592235 
 1750000     302.911239   -4657.093524   -5560.917312       0.000000       0.000000       0.000000   24995.793043  -31606.997501    1050.287146 
 1760000     292.070468   -4690.529452   -5562.006644       0.000000       0.000000       0.000000   24995.872255  -31608.071347    1050.192447 
 1770000     286.316467   -4725.014778   -5579.323236       0.000000       0.000000       0.000000   24900.999099  -31611.513158    1131.190822 
 1780000     298.828251   -4658.216491   -5549.857495       0.000000       0.000000       0.000000   24937.989186  -31613.216620    1125.369938 
 1790000     305.575498   -4612.521234   -5524.294613       0.000000       0.000000       0.000000   24987.757501  -31609.982398    1097.930284 
 1800000     302.621943   -4631.482089   -5534.442676       0.000000       0.000000       0.000000   24999.454526  -31612.889631    1078.992429 
 1810000     305.494570   -4675.669612   -5587.201518       0.000000       0.000000       0.000000   24942.067658  -31616.114912    1086.845736 
 1820000     288.418161   -4635.603571   -5496.183044       0.000000       0.000000       0.000000   24985.255451  -31608.659940    1127.221445 
 1830000     305.308506   -4568.051775   -5479.028505       0.000000       0.000000       0.000000   25027.192783  -31610.955813    1104.734525 
 1840000     293.090907   -4688.174045   -5562.696015       0.000000       0.000000       0.000000   24958.532966  -31608.549055    1087.320074 
 1850000     305.905540   -4572.296502   -5485.054657       0.000000       0.000000       0.000000   25104.626284  -31610.589492    1020.908551 
 1860000     296.237631   -4608.245836   -5492.156973       0.000000       0.000000       0.000000   25057.759556  -31610.081328    1060.164798 
 1870000     298.120708   -4608.626872   -5498.156717       0.000000       0.000000       0.000000   25003.530185  -31610.796355    1109.109453 
 1880000     305.051911   -4596.005686   -5506.216790       0.000000       0.000000       0.000000   24974.412406  -31610.473646    1129.844449 
 1890000     297.648168   -4637.165194   -5525.285077       0.000000       0.000000       0.000000   24925.564589  -31609.688693    1158.839027 
 1900000     285.181788   -4619.144592   -5470.067405       0.000000       0.000000       0.000000   25048.421667  -31604.081172    1085.592100 
 1910000     289.421723   -4645.765070   -5509.338963       0.000000       0.000000       0.000000   25042.247646  -31610.268587    1058.681978 
 1920000     298.885142   -4615.397240   -5507.207996       0.000000       0.000000       0.000000   25000.611705  -31608.357425    1100.537724 
 1930000     298.737241   -4573.028968   -5464.398417       0.000000       0.000000       0.000000   25107.239411  -31609.830783    1038.192954 
 1940000     304.240340   -4652.029687   -5559.819233       0.000000       0.000000       0.000000   24899.139943  -31603.555457    1144.596281 
 1950000     295.575684   -4603.706051   -5485.642076       0.000000       0.000000       0.000000   25120.568354  -31606.226284    1000.015854 
 1960000     298.465932   -4552.229665   -5442.789586       0.000000       0.000000       0.000000   25139.700211  -31609.854294    1027.364497 
 1970000     298.813006   -4665.702045   -5557.297562       0.000000       0.000000       0.000000   24994.407042  -31614.528233    1062.823629 
 1980000     301.544254   -4654.833692   -5554.578680       0.000000       0.000000       0.000000   24945.893143  -31612.837998    1112.366175 
 1990000     307.416999   -4525.443967   -5442.711997       0.000000       0.000000       0.000000   25123.916258  -31606.350066    1039.721811 
 2000000     306.502692   -4588.730532   -5503.270463       0.000000       0.000000       0.000000   25078.324819  -31608.841467    1027.246185 
 2010000     292.461278   -4674.920387   -5547.563673       0.000000       0.000000       0.000000   24968.678909  -31609.995255    1093.752673 
 2020000     303.650219   -4580.076940   -5486.105689       0.000000       0.000000       0.000000   25026.264398  -31610.225695    1097.855609 
 2030000     300.584377   -4670.475206   -5567.356124       0.000000       0.000000       0.000000   24909.974931  -31611.982352    1134.651297 
 2040000     301.725397   -4629.968855   -5530.254338       0.000000       0.000000       0.000000   24945.573422  -31606.782305    1130.954545 
 2050000     298.405963   -4653.976998   -5544.357982       0.000000       0.000000       0.000000   25016.045254  -31611.562221    1051.158986 
 2060000     305.755859   -4595.206257   -5507.517794       0.000000       0.000000       0.000000   25045.828493  -31607.731337    1054.385050 
 2070000     311.549653   -4627.160164   -5556.759172       0.000000       0.000000       0.000000   25002.756098  -31606.704352    1047.189083 
 2080000     290.509291   -4705.865907   -5572.684874       0.000000       0.000000       0.000000   24924.857021  -31611.773334    1114.231439 
 2090000     300.001075   -4625.472978   -5520.613443       0.000000       0.000000       0.000000   25005.828985  -31614.900829    1088.458400 
 2100000     308.588622   -4680.636477   -5601.400387       0.000000       0.000000       0.000000   24957.769025  -31610.869830    1051.700418 
 2110000     301.579130   -4636.764847   -5536.613899       0.000000       0.000000       0.000000   24982.500688  -31608.713818    1089.599231 
 2120000     306.592626   -4556.715906   -5471.524182       0.000000       0.000000       0.000000   25079.377906  -31612.259153    1061.357064 
 2130000     305.686357   -4602.326532   -5514.430692       0.000000       0.000000       0.000000   25034.466723  -31611.040933    1062.143518 
 2140000     312.476379   -4565.224887   -5497.589051       0.000000       0.000000       0.000000   24998.130375  -31610.621531    1114.902104 
 2150000     314.017166   -4601.962086   -5538.923635       0.000000       0.000000       0.000000   24912.025549  -31613.613737    1162.664554 
 2160000     312.311249   -4536.334212   -5468.205661       0.000000       0.000000       0.000000   25100.838849  -31609.067252    1040.022742 
 2170000     296.700746   -4633.076963   -5518.369938       0.000000       0.000000       0.000000   25022.202674  -31610.608307    1070.035695 
 2180000     302.733392   -4649.368655   -5552.661783       0.000000       0.000000       0.000000   24946.932533  -31611.331351    1111.737035 
 2190000     283.840990   -4751.716625   -5598.638776       0.000000       0.000000       0.000000   24855.493777  -31608.857198    1154.724646 
 2200000     291.756755   -4634.763384   -5505.304521       0.000000       0.000000       0.000000   25053.162568  -31610.671544    1052.204455 
 2210000     303.315932   -4628.242419   -5533.273724       0.000000       0.000000       0.000000   24916.930055  -31605.835929    1155.632150 
 2220000     289.620572   -4645.564532   -5509.731749       0.000000       0.000000       0.000000   24965.053485  -31607.603035    1132.817802 
 2230000     302.609424   -4640.434704   -5543.357939       0.000000       0.000000       0.000000   24992.288495  -31611.427177    1075.780742 
 2240000     291.539431   -4657.836167   -5527.728856       0.000000       0.000000       0.000000   24987.953363  -31614.636786    1098.954567 
 2250000     292.891837   -4659.364065   -5533.292051       0.000000       0.000000       0.000000   25015.470077  -31610.744028    1061.981899 
 2260000     309.635501   -4568.214372   -5492.101949       0.000000       0.000000       0.000000   25017.442126  -31612.107911    1102.563836 
 2270000     300.465864   -4611.158720   -5507.686020       0.000000       0.000000       0.000000   24977.918723  -31612.884699    1127.279956 
 2280000     309.924598   -4587.822605   -5512.572786       0.000000       0.000000       0.000000   24923.650623  -31609.630802    1173.407393 
 2290000     291.674954   -4633.354520   -5503.651582       0.000000       0.000000       0.000000   25007.241032  -31607.940412    1097.047799 
 2300000     296.241694   -4601.698740   -5485.621997       0.000000       0.000000       0.000000   25022.119010  -31612.945154    1105.204147 
 2310000     294.643171   -4646.987448   -5526.141049       0.000000       0.000000       0.000000   25019.356560  -31611.394370    1065.896761 
 2320000     291.311112   -4640.175342   -5509.386775       0.000000       0.000000       0.000000   24954.835794  -31609.700004    1145.477435 
 2330000     298.193043   -4607.624327   -5497.370003       0.000000       0.000000       0.000000   25012.283194  -31607.463423    1097.810226 
 2340000     299.904595   -4653.024915   -5547.877503       0.000000       0.000000       0.000000   24923.561329  -31612.482148    1141.043316 
 2350000     289.089588   -4681.877968   -5544.460837       0.000000       0.000000       0.000000   25054.132794  -31610.487856    1011.894225 
 2360000     306.987805   -4619.271267   -5535.258674       0.000000       0.000000       0.000000   24989.557052  -31614.390726    1089.575000 
 2370000     308.098967   -4529.634335   -5448.937217       0.000000       0.000000       0.000000   25174.448202  -31605.610545     982.225126 
 2380000     301.947706   -4653.456840   -5554.405645       0.000000       0.000000       0.000000   24941.562648  -31607.311992    1111.343699 
 2390000     281.343473   -4724.280154   -5563.750238       0.000000       0.000000       0.000000   24994.401251  -31610.949481    1052.797991 
 2400000     291.789591   -4628.129581   -5498.768696       0.000000       0.000000       0.000000   25023.048506  -31612.260228    1090.443026 
 2410000     293.066747   -4625.257999   -5499.707881       0.000000       0.000000       0.000000   24959.720951  -31611.469434    1152.040602 
 2420000     297.723385   -4620.674859   -5509.019174       0.000000       0.000000       0.000000   24982.467220  -31612.700738    1121.214344 
 2430000     300.194731   -4546.781883   -5442.500176       0.000000       0.000000       0.000000   25030.115248  -31606.838720    1134.223296 
 2440000     300.409446   -4622.363691   -5518.722649       0.000000       0.000000       0.000000   24983.779743  -31611.680650    1109.178257 
 2450000     308.198582   -4565.250285   -5484.850398       0.000000       0.000000       0.000000   25102.237613  -31612.717661    1025.629650 
 2460000     298.901943   -4667.152003   -5559.012888       0.000000       0.000000       0.000000   24945.734321  -31612.358478    1107.611268 
 2470000     306.406942   -4581.686319   -5495.940553       0.000000       0.000000       0.000000   24917.934382  -31609.968137    1196.093202 
 2480000     294.865532   -4585.449877   -5465.266956       0.000000       0.000000       0.000000   25057.464281  -31610.795812    1088.064575 
 2490000     296.860297   -4655.595385   -5541.364426       0.000000       0.000000       0.000000   24951.363895  -31608.980639    1116.252318 
 2500000     305.150088   -4613.690207   -5524.194251       0.000000       0.000000       0.000000   24977.828883  -31610.205829    1108.182696 
 2510000     314.261182   -4585.811736   -5523.501378       0.000000       0.000000       0.000000   24952.963066  -31612.540063    1136.075618 
 2520000     298.798094   -4653.820854   -5545.371876       0.000000       0.000000       0.000000   24917.611586  -31612.895927    1149.912465 
 2530000     305.011050   -4619.337070   -5529.426253       0.000000       0.000000       0.000000   24982.244459  -31609.560346    1097.889635 
 2540000     301.178790   -4621.924735   -5520.579256       0.000000       0.000000       0.000000   24958.638598  -31606.064021    1126.846167 
 2550000     311.658473   -4612.052950   -5541.976654       0.000000       0.000000       0.000000   24978.732888  -31605.952286    1085.242744 
 2560000     310.863588   -4629.445265   -5556.997197       0.000000       0.000000       0.000000   24913.498821  -31609.949355    1139.453337 
 2570000     301.590742   -4653.143301   -5553.027001       0.000000       0.000000       0.000000   24935.038867  -31608.604629    1120.538761 
 2580000     307.487092   -4608.701136   -5526.178311       0.000000       0.000000       0.000000   25003.823122  -31613.357987    1083.356553 
 2590000     307.192097   -4538.317171   -5454.914144       0.000000       0.000000       0.000000   25071.993565  -31609.485799    1082.578090 
 2600000     293.484295   -4586.418140   -5462.113898       0.000000       0.000000       0.000000   25046.102724  -31608.955908    1100.739286 
 2610000     291.726215   -4626.586083   -5497.036098       0.000000       0.000000       0.000000   25025.845593  -31606.790589    1083.908899 
 2620000     296.850088   -4643.435381   -5529.173962       0.000000       0.000000       0.000000   25039.428851  -31607.659732    1039.056920 
 2630000     300.697691   -4636.444844   -5533.663865       0.000000       0.000000       0.000000   24952.187064  -31610.217759    1124.366830 
 2640000     306.942387   -4546.191242   -5462.043131       0.000000       0.000000       0.000000   25115.323816  -31605.150462    1027.783515 
 2650000     308.483943   -4653.766818   -5574.218389       0.000000       0.000000       0.000000   24890.971814  -31609.258929    1144.068727 
 2660000     289.595977   -4640.826400   -5504.920230       0.000000       0.000000       0.000000   24996.940847  -31608.424962    1106.563886 
 2670000     304.788490   -4667.627842   -5577.052953       0.000000       0.000000       0.000000   24984.628793  -31611.244056    1049.562309 
 2680000     301.345202   -4655.208574   -5554.359633       0.000000       0.000000       0.000000   24939.460576  -31611.844151    1118.023942 
 2690000     282.103568   -4687.312521   -5529.050568       0.000000       0.000000       0.000000   24952.410894  -31612.686919    1131.225458 
 2700000     321.049052   -4546.621639   -5504.564866       0.000000       0.000000       0.000000   25051.079085  -31612.818372    1057.174421 
 2710000     302.939930   -4568.964708   -5472.874102       0.000000       0.000000       0.000000   25081.944361  -31607.498306    1052.679843 
 2720000     304.598876   -4613.220605   -5522.079949       0.000000       0.000000       0.000000   25022.483070  -31616.940979    1072.377960 
 2730000     304.689066   -4591.834077   -5500.962526       0.000000       0.000000       0.000000   25005.519009  -31613.354136    1106.872601 
 2740000     297.469211   -4647.263709   -5534.849621       0.000000       0.000000       0.000000   24973.623676  -31611.873954    1103.400657 
 2750000     308.192113   -4620.788192   -5540.369001       0.000000       0.000000       0.000000   25014.670722  -31607.365568    1052.325844 
 2760000     298.606024   -4625.633024   -5516.610950       0.000000       0.000000       0.000000   25035.725143  -31614.800649    1062.464556 
 2770000     310.531922   -4548.789026   -5475.351336       0.000000       0.000000       0.000000   25084.878773  -31608.657890    1048.427781 
 2780000     286.740306   -4640.774769   -5496.347875       0.000000       0.000000       0.000000   24986.272846  -31606.890654    1124.269933 
 2790000     288.361862   -4714.422367   -5574.833857       0.000000       0.000000       0.000000   24876.710912  -31612.484313    1160.939545 
 2800000     305.322587   -4618.301980   -5529.320725       0.000000       0.000000       0.000000   24975.197187  -31609.857343    1105.339431 
 2810000     292.418894   -4670.927019   -5543.443843       0.000000       0.000000       0.000000   25003.745903  -31612.314855    1065.125109 
 2820000     303.481387   -4615.920216   -5521.445204       0.000000       0.000000       0.000000   25008.039766  -31612.199228    1082.714258 
 2830000     298.003854   -4543.067956   -5432.249132       0.000000       0.000000       0.000000   25125.241457  -31609.494900    1052.004312 
 2840000     288.108959   -4676.974084   -5536.630962       0.000000       0.000000       0.000000   24940.306425  -31612.905450    1135.968064 
 2850000     303.156570   -4595.784263   -5500.340066       0.000000       0.000000       0.000000   25020.811583  -31610.505558    1089.353909 
 2860000     312.888319   -4584.408762   -5518.002068       0.000000       0.000000       0.000000   25012.672834  -31609.822810    1079.147908 
 2870000     302.522703   -4578.370175   -5481.034651       0.000000       0.000000       0.000000   25046.557893  -31608.285375    1080.692831 
 2880000     297.604673   -4642.854503   -5530.844605       0.000000       0.000000       0.000000   24964.694593  -31609.197592    1113.658394 
 2890000     304.274442   -4614.203203   -5522.094501       0.000000       0.000000       0.000000   25019.005924  -31609.871977    1068.771552 
 2900000     290.564161   -4722.664301   -5589.646990       0.000000       0.000000       0.000000   24906.489843  -31614.205550    1118.068718 
 2910000     289.668606   -4637.463576   -5501.774116       0.000000       0.000000       0.000000   25039.487085  -31611.562143    1070.300942 
 2920000     295.331737   -4577.073430   -5458.281567       0.000000       0.000000       0.000000   25037.381018  -31609.373119    1113.710534 
 2930000     293.842779   -4676.858409   -5553.623805       0.000000       0.000000       0.000000   24906.573140  -31613.724403    1153.527458 
 2940000     301.075013   -4604.965135   -5503.310005       0.000000       0.000000       0.000000   25031.214822  -31607.973382    1073.448555 
 2950000     296.515764   -4652.319642   -5537.060669       0.000000       0.000000       0.000000   25059.479797  -31613.305617    1016.765151 
 2960000     315.655842   -4596.762043   -5538.613061       0.000000       0.000000       0.000000   24952.762375  -31611.698933    1120.323497 
 2970000     298.154049   -4596.676772   -5486.306097       0.000000       0.000000       0.000000   25041.916031  -31610.723815    1082.501687 
 2980000     302.918993   -4577.458669   -5481.305592       0.000000       0.000000       0.000000   25038.793100  -31613.007250    1092.908558 
 2990000     302.620110   -4649.451740   -5552.406860       0.000000       0.000000       0.000000   24998.636127  -31609.831881    1058.788894 
 3000000     288.129203   -4713.809301   -5573.526585       0.000000       0.000000       0.000000   24963.343155  -31609.078086    1072.208346 
 3010000     286.577885   -4657.265685   -5512.354160       0.000000       0.000000       0.000000   25051.080888  -31609.612839    1046.177791 
 3020000     297.112869   -4621.018453   -5507.541116       0.000000       0.000000       0.000000   24973.066302  -31608.189475    1127.582057 
 3030000     305.024708   -4593.968897   -5504.098832       0.000000       0.000000       0.000000   25020.378998  -31611.981883    1087.504053 
 3040000     292.409203   -4643.690125   -5516.178033       0.000000       0.000000       0.000000   25045.780315  -31614.059102    1052.100754 
 3050000     300.457470   -4614.166861   -5510.669114       0.000000       0.000000       0.000000   25014.564343  -31613.118698    1087.885241 
 3060000     300.887932   -4596.830113   -5494.616774       0.000000       0.000000       0.000000   25060.160166  -31609.880565    1055.103626 
 3070000     298.883777   -4611.645203   -5503.451886       0.000000       0.000000       0.000000   25051.534634  -31609.635392    1054.648872 
 3080000     301.000008   -4634.969995   -5533.091068       0.000000       0.000000       0.000000   24976.583047  -31606.435199    1096.761085 
 3090000     317.152522   -4512.079530   -5458.396326       0.000000       0.000000       0.000000   25043.323636  -31601.610083    1099.890121 
 3100000     282.601870   -4690.709602   -5533.934479       0.000000       0.000000       0.000000   24997.751771  -31613.655765    1081.969515 
 3110000     298.892949   -4655.424689   -5547.258738       0.000000       0.000000       0.000000   24973.447916  -31614.303216    1093.596563 
 3120000     295.733369   -4606.898189   -5489.304711       0.000000       0.000000       0.000000   25041.743216  -31609.180043    1078.132116 
 3130000     301.062273   -4620.869885   -5519.176743       0.000000       0.000000       0.000000   24941.649497  -31613.346571    1152.520332 
 3140000     301.089612   -4654.540830   -5552.929263       0.000000       0.000000       0.000000   24907.135404  -31608.034564    1147.969897 
 3150000     294.954159   -4606.061408   -5486.142933       0.000000       0.000000       0.000000   25054.248510  -31609.776291    1069.384848 
 3160000     306.747403   -4630.604132   -5545.874231       0.000000       0.000000       0.000000   24953.070422  -31613.350826    1114.406174 
 3170000     294.001358   -4691.933786   -5569.172352       0.000000       0.000000       0.000000   24957.306502  -31612.342618    1085.863763 
 3180000     296.472781   -4675.538843   -5560.151618       0.000000       0.000000       0.000000   24946.367779  -31610.668571    1104.149174 
 3190000     293.986473   -4649.655067   -5526.849219       0.000000       0.000000       0.000000   24964.249283  -31610.062449    1118.963947 
 3200000     286.053188   -4643.617571   -5497.140458       0.000000       0.000000       0.000000   25050.286694  -31611.620215    1064.193063 
 3210000     304.167265   -4591.347000   -5498.918504       0.000000       0.000000       0.000000   25075.751940  -31611.133024    1036.462580 
 3220000     302.013494   -4623.830623   -5524.975726       0.000000       0.000000       0.000000   24975.195807  -31610.632628    1110.461094 
 3230000     299.362432   -4614.849474   -5508.084361       0.000000       0.000000       0.000000   25039.989352  -31616.245640    1068.171926 
 3240000     298.361425   -4654.018315   -5544.266410       0.000000       0.000000       0.000000   24953.438554  -31611.615118    1113.910155 
 3250000     312.223397   -4603.679264   -5535.288581       0.000000       0.000000       0.000000   24994.144063  -31611.633399    1082.200756 
 3260000     287.204017   -4691.130741   -5548.087463       0.000000       0.000000       0.000000   24949.717904  -31608.561793    1110.756427 
 3270000     286.852175   -4615.961592   -5471.868490       0.000000       0.000000       0.000000   25030.160824  -31608.956326    1106.927012 
 3280000     307.001985   -4599.677608   -5515.707325       0.000000       0.000000       0.000000   25056.218647  -31609.554687    1037.628715 
 3290000     302.963111   -4668.633011   -5572.611574       0.000000       0.000000       0.000000   24920.027447  -31611.652589    1119.013568 
 3300000     303.859390   -4615.114465   -5521.767336       0.000000       0.000000       0.000000   24984.432239  -31605.843595    1099.644020 
 3310000     302.988928   -4587.380675   -5491.436270       0.000000       0.000000       0.000000   25057.353996  -31609.476341    1060.686076 
 3320000     306.946099   -4599.157266   -5515.020232       0.000000       0.000000       0.000000   24979.630868  -31608.432547    1113.781447 
 3330000     301.736876   -4710.058718   -5610.378450       0.000000       0.000000       0.000000   24906.822230  -31608.250233    1091.049553 
 3340000     304.866704   -4584.927900   -5494.586386       0.000000       0.000000       0.000000   25001.236161  -31609.717019    1113.894473 
 3350000     303.655399   -4549.722138   -5455.766343       0.000000       0.000000       0.000000   25083.582613  -31611.626322    1072.277365 
 3360000     287.103959   -4665.477872   -5522.136040       0.000000       0.000000       0.000000   24943.821278  -31608.483861    1142.526542 
 3370000     295.862355   -4599.350928   -5482.142320       0.000000       0.000000       0.000000   25014.791413  -31608.157865    1111.224133 
 3380000     300.422601   -4591.835249   -5488.233462       0.000000       0.000000       0.000000   24986.817673  -31613.207737    1138.156603 
 3390000     294.492983   -4638.863242   -5517.568712       0.000000       0.000000       0.000000   24973.386232  -31610.031069    1119.076125 
 3400000     295.342529   -4616.339863   -5497.580202       0.000000       0.000000       0.000000   25036.045415  -31609.740265    1076.114648 
 3410000     299.984715   -4649.847180   -5544.938831       0.000000       0.000000       0.000000   24949.006443  -31610.915517    1116.970243 
 3420000     292.669945   -4756.549028   -5629.814934       0.000000       0.000000       0.000000   24762.243807  -31615.417428    1223.358688 
 3430000     300.778098   -4620.029926   -5517.488865       0.000000       0.000000       0.000000   24981.886281  -31609.611733    1110.236587 
 3440000     293.725737   -4625.891774   -5502.307942       0.000000       0.000000       0.000000   25041.426420  -31610.979089    1067.244727 
 3450000     293.293257   -4684.894537   -5560.020276       0.000000       0.000000       0.000000   24953.881461  -31610.398120    1096.496383 
 3460000     300.054065   -4624.049625   -5519.348202       0.000000       0.000000       0.000000   24975.625332  -31609.603807    1114.630273 
 3470000     301.719230   -4645.434419   -5545.701500       0.000000       0.000000       0.000000   24963.504808  -31608.830368    1099.624060 
 3480000     298.625424   -4618.109313   -5509.145125       0.000000       0.000000       0.000000   25112.497300  -31609.684827     988.042402 
 3490000     307.318740   -4580.560787   -5497.535635       0.000000       0.000000       0.000000   25069.772691  -31613.107520    1045.799194 
 3500000     305.942736   -4614.358817   -5527.227955       0.000000       0.000000       0.000000   24998.508094  -31608.303909    1082.567861 
 3510000     296.584848   -4631.893649   -5516.840808       0.000000       0.000000       0.000000   25044.582518  -31612.815258    1051.391932 
 3520000     304.255972   -4576.011244   -5483.847432       0.000000       0.000000       0.000000   25133.071254  -31608.999387     992.080701 
 3530000     292.423569   -4637.940907   -5510.471681       0.000000       0.000000       0.000000   25037.362009  -31608.427216    1060.593526 
 3540000     297.106563   -4643.580072   -5530.083919       0.000000       0.000000       0.000000   24949.371528  -31612.062348    1132.606901 
 3550000     298.890145   -4639.853454   -5531.679138       0.000000       0.000000       0.000000   25004.215777  -31609.462641    1073.567726 
 3560000     297.333532   -4644.794459   -5531.975534       0.000000       0.000000       0.000000   24994.742625  -31612.420336    1085.702177 
 3570000     299.070049   -4608.409685   -5500.772163       0.000000       0.000000       0.000000   24999.509527  -31610.312770    1110.031080 
 3580000     289.838390   -4673.661545   -5538.478685       0.000000       0.000000       0.000000   24917.050693  -31606.724614    1151.195237 
 3590000     288.225338   -4673.989185   -5533.993313       0.000000       0.000000       0.000000   24950.451598  -31607.860089    1123.415177 
 3600000     296.911046   -4682.121040   -5568.041505       0.000000       0.000000       0.000000   24830.629402  -31613.275631    1214.604724 
 3610000     309.659741   -4523.508282   -5447.468186       0.000000       0.000000       0.000000   25113.765375  -31607.199549    1045.965989 
 3620000     307.411346   -4569.267875   -5486.519039       0.000000       0.000000       0.000000   25014.120228  -31610.439358    1109.800091 
 3630000     304.929098   -4616.903940   -5526.748594       0.000000       0.000000       0.000000   24955.735240  -31613.461814    1130.977980 
 3640000     291.414473   -4642.358355   -5511.878195       0.000000       0.000000       0.000000   25027.118166  -31610.514127    1071.517766 
 3650000     304.066543   -4616.311478   -5523.582451       0.000000       0.000000       0.000000   25016.705508  -31609.852104    1069.564146 
 3660000     296.281787   -4670.629188   -5554.672076       0.000000       0.000000       0.000000   24997.060938  -31611.907225    1060.174211 
 3670000     300.016460   -4646.318356   -5541.504726       0.000000       0.000000       0.000000   25009.256708  -31608.394743    1057.633309 
 3680000     295.656699   -4618.024088   -5500.201843       0.000000       0.000000       0.000000   24991.396470  -31610.068696    1118.470382 
 3690000     305.851731   -4671.751260   -5584.348860       0.000000       0.000000       0.000000   24952.467141  -31611.575367    1074.759365 
 3700000     296.159631   -4658.851321   -5542.529720       0.000000       0.000000       0.000000   24929.006697  -31606.383942    1134.847524 
 3710000     291.354332   -4659.529968   -5528.870361       0.000000       0.000000       0.000000   24960.400086  -31604.292070    1115.021622 
 3720000     288.810299   -4726.574350   -5588.323879       0.000000       0.000000       0.000000   24895.423859  -31609.713027    1125.965289 
 3730000     296.169784   -4614.604289   -5498.312985       0.000000       0.000000       0.000000   25042.850736  -31612.413271    1071.249550 
 3740000     295.012683   -4651.835139   -5532.091285       0.000000       0.000000       0.000000   25018.251952  -31613.704235    1063.360999 
 3750000     295.381982   -4662.020976   -5543.379035       0.000000       0.000000       0.000000   24985.341877  -31611.361602    1082.640691 
 3760000     303.892826   -4644.557356   -5551.309994       0.000000       0.000000       0.000000   24956.748926  -31610.087952    1102.029032 
 3770000     299.137698   -4668.072083   -5560.636412       0.000000       0.000000       0.000000   24910.169655  -31609.466021    1138.659955 
 3780000     311.057165   -4638.810162   -5566.939687       0.000000       0.000000       0.000000   24939.640973  -31614.099342    1107.518681 
 3790000     297.521811   -4651.099805   -5538.842666       0.000000       0.000000       0.000000   24936.014539  -31610.862469    1136.005263 
 3800000     305.404347   -4611.485638   -5522.748337       0.000000       0.000000       0.000000   24987.482734  -31611.699883    1101.468812 
 3810000     298.941713   -4639.996743   -5531.976294       0.000000       0.000000       0.000000   25006.175896  -31608.776393    1070.624203 
 3820000     313.159872   -4526.975872   -5461.379435       0.000000       0.000000       0.000000   25054.170924  -31610.531992    1094.981633 
 3830000     287.277217   -4693.682428   -5550.857561       0.000000       0.000000       0.000000   24953.149150  -31608.492338    1104.485626 
 3840000     299.709883   -4641.067489   -5535.339099       0.000000       0.000000       0.000000   24967.618188  -31609.331617    1106.374330 
 3850000     293.956405   -4636.210416   -5513.314851       0.000000       0.000000       0.000000   24964.660831  -31609.607213    1131.631531 
 3860000     309.744775   -4576.017506   -5500.231135       0.000000       0.000000       0.000000   24986.283409  -31606.816868    1120.302324 
 3870000     294.725473   -4604.798617   -5484.197789       0.000000       0.000000       0.000000   25084.593027  -31602.917297    1034.126481 
 3880000     301.418021   -4632.015226   -5531.383561       0.000000       0.000000       0.000000   24957.816884  -31610.739642    1121.539198 
 3890000     300.004432   -4640.359481   -5535.509964       0.000000       0.000000       0.000000   24968.599480  -31609.990325    1105.880882 
 3900000     300.982549   -4731.729483   -5629.798461       0.000000       0.000000       0.000000   24812.143892  -31613.521580    1171.579227 
 3910000     304.334165   -4580.644601   -5488.714101       0.000000       0.000000       0.000000   25121.836767  -31612.486953    1001.936086 
 3920000     303.522320   -4606.268209   -5511.915334       0.000000       0.000000       0.000000   24989.814250  -31611.019623    1109.290038 
 3930000     297.114953   -4594.077229   -5480.606109       0.000000       0.000000       0.000000   25055.357770  -31611.877289    1075.913409 
 3940000     297.157611   -4634.887910   -5521.544074       0.000000       0.000000       0.000000   24967.458890  -31609.711844    1120.708879 
 3950000     287.492634   -4653.661506   -5511.479398       0.000000       0.000000       0.000000   25034.194933  -31609.487475    1063.813143 
 3960000     301.832528   -4597.825666   -5498.430805       0.000000       0.000000       0.000000   24981.910615  -31609.277989    1128.936569 
 3970000     306.044365   -4599.621279   -5512.793658       0.000000       0.000000       0.000000   24919.916838  -31608.782337    1176.071842 
 3980000     300.583607   -4585.721689   -5482.600308       0.000000       0.000000       0.000000   25113.006705  -31610.939299    1015.332286 
 3990000     296.076076   -4635.041499   -5518.470587       0.000000       0.000000       0.000000   24928.811069  -31609.427620    1162.145964 
 4000000     301.287431   -4638.661160   -5537.639842       0.000000       0.000000       0.000000   24947.401121  -31606.522682    1121.481718 
 4010000     293.193399   -4631.145387   -5505.973172       0.000000       0.000000       0.000000   24962.152630  -31607.732701    1139.606899 
 4020000     300.455842   -4609.873067   -5506.370463       0.000000       0.000000       0.000000   25000.686914  -31610.089176    1103.031798 
 4030000     302.073247   -4701.919170   -5603.242562       0.000000       0.000000       0.000000   24883.814232  -31612.953779    1125.896985 
 4040000     301.421373   -4494.968952   -5394.347290       0.000000       0.000000       0.000000   25260.254740  -31609.003719     954.401690 
 4050000     298.264646   -4621.877288   -5511.836612       0.000000       0.000000       0.000000   24979.851299  -31609.378187    1117.690276 
 4060000     293.322622   -4672.572285   -5547.785643       0.000000       0.000000       0.000000   24988.479219  -31614.083851    1077.818989 
 4070000     309.700496   -4575.778125   -5499.859634       0.000000       0.000000       0.000000   24947.991557  -31604.597062    1156.745871 
 4080000     293.253319   -4608.890373   -5483.896947       0.000000       0.000000       0.000000   25094.213534  -31612.176124    1034.065644 
 4090000     291.409257   -4618.403707   -5487.907983       0.000000       0.000000       0.000000   25033.880376  -31605.405542    1083.617183 
 4100000     299.169850   -4692.597746   -5585.258012       0.000000       0.000000       0.000000   24859.048119  -31611.090404    1166.784273 
 4110000     309.469626   -4567.021987   -5490.414629       0.000000       0.000000       0.000000   25004.027048  -31610.111205    1115.669528 
 4120000     303.933856   -4589.077194   -5495.952255       0.000000       0.000000       0.000000   24973.895032  -31609.518760    1139.671474 
 4130000     295.109490   -4661.119447   -5541.664447       0.000000       0.000000       0.000000   24904.841812  -31607.245787    1160.739529 
 4140000     305.781224   -4539.134385   -5451.521607       0.000000       0.000000       0.000000   25166.797934  -31612.011503     993.691962 
 4150000     290.142705   -4568.877731   -5434.602883       0.000000       0.000000       0.000000   25100.596300  -31609.386624    1074.187440 
 4160000     287.200393   -4662.054107   -5519.000015       0.000000       0.000000       0.000000   25041.346860  -31606.517287    1046.170412 
 4170000     299.813357   -4662.471999   -5557.052354       0.000000       0.000000       0.000000   24908.579365  -31610.281818    1144.650100 
 4180000     314.496366   -4562.309065   -5500.700448       0.000000       0.000000       0.000000   25022.094711  -31609.105556    1086.310396 
 4190000     299.148554   -4613.544990   -5506.141712       0.000000       0.000000       0.000000   25050.991125  -31608.559752    1051.426915 
 4200000     304.288552   -4622.570404   -5530.503806       0.000000       0.000000       0.000000   24976.896647  -31609.765944    1102.365491 
 4210000     299.624506   -4635.271265   -5529.288126       0.000000       0.000000       0.000000   25095.309372  -31607.117531     982.520032 
 4220000     309.531771   -4613.154090   -5536.732158       0.000000       0.000000       0.000000   24963.389716  -31614.070017    1113.948144 
 4230000     301.706310   -4672.691930   -5572.920459       0.000000       0.000000       0.000000   24932.387296  -31611.471967    1106.164212 
 4240000     295.106309   -4646.290007   -5526.825515       0.000000       0.000000       0.000000   25067.640310  -31605.669243    1011.203418 
 4250000     290.644916   -4632.317662   -5499.541306       0.000000       0.000000       0.000000   25030.841960  -31612.054379    1081.671113 
 4260000     287.308203   -4671.470170   -5528.737760       0.000000       0.000000       0.000000   24981.096324  -31610.777430    1100.943347 
 4270000     312.021688   -4542.551509   -5473.558969       0.000000       0.000000       0.000000   25133.270620  -31611.841478    1005.011889 
 4280000     316.295507   -4582.741875   -5526.501517       0.000000       0.000000       0.000000   25006.379609  -31612.983156    1080.102029 
 4290000     294.545145   -4634.891877   -5513.752988       0.000000       0.000000       0.000000   24958.552489  -31608.535574    1136.230097 
 4300000     313.185451   -4605.886635   -5540.366522       0.000000       0.000000       0.000000   24871.226047  -31611.098018    1199.505450 
 4310000     296.921908   -4616.434727   -5502.387602       0.000000       0.000000       0.000000   25007.651354  -31612.756446    1102.717490 
 4320000     290.507601   -4673.634748   -5540.448674       0.000000       0.000000       0.000000   25000.217285  -31607.695541    1067.029583 
 4330000     291.936620   -4730.145231   -5601.223049       0.000000       0.000000       0.000000   24933.498769  -31608.451768    1073.729950 
 4340000     311.786133   -4619.606054   -5549.910667       0.000000       0.000000       0.000000   24995.957678  -31607.661472    1061.793127 
 4350000     311.555767   -4594.978577   -5524.595828       0.000000       0.000000       0.000000   25027.444035  -31610.264198    1058.224335 
 4360000     302.553880   -4575.519603   -5478.277105       0.000000       0.000000       0.000000   25058.217473  -31611.416923    1074.922345 
 4370000     297.350649   -4587.080124   -5474.312274       0.000000       0.000000       0.000000   25073.825084  -31610.403927    1062.266569 
 4380000     304.601197   -4580.859643   -5489.725912       0.000000       0.000000       0.000000   25075.958237  -31607.068157    1041.384008 
 4390000     298.893706   -4634.739881   -5526.576188       0.000000       0.000000       0.000000   25049.736887  -31610.316708    1034.003632 
 4400000     289.864362   -4626.021337   -5490.915972       0.000000       0.000000       0.000000   25020.642783  -31611.400371    1099.841616 
 4410000     290.671778   -4693.085397   -5560.389191       0.000000       0.000000       0.000000   25024.504761  -31610.177810    1025.283857 
 4420000     290.040012   -4647.945097   -5513.363833       0.000000       0.000000       0.000000   24993.719029  -31608.473185    1101.390323 
 4430000     306.784550   -4650.196912   -5565.577847       0.000000       0.000000       0.000000   24950.501878  -31613.802879    1097.723154 
 4440000     300.344637   -4589.606612   -5485.772193       0.000000       0.000000       0.000000   25040.931011  -31607.425800    1080.722596 
 4450000     308.847990   -4660.307500   -5581.845310       0.000000       0.000000       0.000000   24932.441819  -31612.394959    1098.107830 
 4460000     300.092810   -4616.713970   -5512.128154       0.000000       0.000000       0.000000   25050.218208  -31611.411895    1049.065533 
 4470000     315.801872   -4586.456734   -5528.743473       0.000000       0.000000       0.000000   24993.204441  -31612.001423    1090.053509 
 4480000     285.493765   -4676.535628   -5528.389316       0.000000       0.000000       0.000000   24977.406904  -31607.754142    1101.957922 
 4490000     309.739284   -4648.962918   -5573.160161       0.000000       0.000000       0.000000   24938.313925  -31615.068849    1103.594763 
 4500000     296.145458   -4652.369819   -5536.005931       0.000000       0.000000       0.000000   24909.064918  -31612.463149    1167.392300 
 4510000     295.961238   -4637.846582   -5520.933020       0.000000       0.000000       0.000000   25054.918048  -31611.367432    1035.516364 
 4520000     288.894880   -4588.741371   -5450.743272       0.000000       0.000000       0.000000   25092.818397  -31611.152673    1067.591004 
 4530000     294.773750   -4604.803327   -5484.346548       0.000000       0.000000       0.000000   24999.682808  -31611.783175    1127.753820 
 4540000     306.068835   -4618.237337   -5531.482730       0.000000       0.000000       0.000000   25030.677688  -31612.385125    1050.224707 
 4550000     295.241318   -4666.257430   -5547.195775       0.000000       0.000000       0.000000   24925.381818  -31608.108146    1135.530553 
 4560000     294.783773   -4591.843080   -5471.416209       0.000000       0.000000       0.000000   25077.514124  -31608.644954    1059.714621 
 4570000     309.214936   -4673.467402   -5596.100102       0.000000       0.000000       0.000000   24848.010645  -31613.117102    1169.006355 
 4580000     310.513780   -4622.960834   -5549.469012       0.000000       0.000000       0.000000   24992.068778  -31610.390452    1068.852662 
 4590000     297.897720   -4667.020830   -5555.885324       0.000000       0.000000       0.000000   24964.680475  -31609.908939    1089.343140 
 4600000     301.693914   -4666.705784   -5566.897328       0.000000       0.000000       0.000000   24897.574480  -31607.059576    1142.587768 
 4610000     303.360786   -4628.403189   -5533.568329       0.000000       0.000000       0.000000   25025.914427  -31611.338508    1051.855751 
 4620000     293.756996   -4643.343733   -5519.853172       0.000000       0.000000       0.000000   24970.634807  -31606.983085    1116.495106 
 4630000     300.400576   -4615.998689   -5512.331182       0.000000       0.000000       0.000000   24989.486054  -31609.108856    1107.291620 
 4640000     299.577498   -4591.684289   -5485.560888       0.000000       0.000000       0.000000   24990.861807  -31611.556031    1135.133336 
 4650000     290.770902   -4648.227683   -5515.827243       0.000000       0.000000       0.000000   25018.556077  -31611.246309    1076.862988 
 4660000     315.143121   -4533.098958   -5473.420121       0.000000       0.000000       0.000000   25036.347546  -31605.035327    1095.267660 
 4670000     303.252535   -4613.929326   -5518.771468       0.000000       0.000000       0.000000   24983.725064  -31612.559744    1110.063212 
 4680000     305.660999   -4664.644428   -5576.672923       0.000000       0.000000       0.000000   24918.674995  -31613.356673    1118.008754 
 4690000     310.215907   -4688.472938   -5614.092325       0.000000       0.000000       0.000000   24905.188977  -31612.650168    1093.368865 
 4700000     287.154722   -4626.831836   -5483.641470       0.000000       0.000000       0.000000   25010.505909  -31608.204417    1114.057038 
 4710000     302.493854   -4671.345006   -5573.923402       0.000000       0.000000       0.000000   24895.062843  -31611.767524    1142.781278 
 4720000     300.944061   -4744.712461   -5642.666599       0.000000       0.000000       0.000000   24809.324008  -31612.850826    1160.860220 
 4730000     286.692842   -4713.001998   -5568.433481       0.000000       0.000000       0.000000   24989.314743  -31614.372038    1056.623813 
 4740000     298.424568   -4686.264649   -5576.701147       0.000000       0.000000       0.000000   24974.844286  -31613.245096    1061.699662 
 4750000     294.831375   -4629.727216   -5509.442378       0.000000       0.000000       0.000000   25074.949936  -31612.418181    1028.025867 
 4760000     294.100718   -4650.582279   -5528.117314       0.000000       0.000000       0.000000   24939.419793  -31612.424538    1144.887431 
 4770000     301.859750   -4611.299144   -5511.985507       0.000000       0.000000       0.000000   25034.350569  -31609.340477    1063.004401 
 4780000     314.260343   -4597.694858   -5535.381997       0.000000       0.000000       0.000000   24949.158135  -31607.017780    1122.477649 
 4790000     287.332384   -4721.751422   -5579.091164       0.000000       0.000000       0.000000   24825.509186  -31606.830868    1202.230518 
 4800000     299.159209   -4625.773251   -5518.401764       0.000000       0.000000       0.000000   25055.221243  -31608.892152    1035.269145 
 4810000     306.940549   -4618.537309   -5534.383712       0.000000       0.000000       0.000000   24990.241156  -31610.600757    1085.975889 
 4820000     302.572871   -4677.292148   -5580.106314       0.000000       0.000000       0.000000   24865.770189  -31609.151390    1163.274887 
 4830000     298.568455   -4630.689296   -5521.555124       0.000000       0.000000       0.000000   24996.299591  -31610.579687    1092.724972 
 4840000     299.073281   -4684.121490   -5576.493612       0.000000       0.000000       0.000000   24878.313137  -31606.304136    1151.497388 
 4850000     294.103030   -4681.951786   -5559.493718       0.000000       0.000000       0.000000   24921.860660  -31614.241754    1132.887376 
 4860000     305.064053   -4606.910084   -5517.157416       0.000000       0.000000       0.000000   24919.302097  -31607.631099    1171.171586 
 4870000     301.621483   -4598.340892   -5498.316316       0.000000       0.000000       0.000000   25038.577112  -31606.895156    1070.001728 
 4880000     297.893169   -4603.486861   -5492.337775       0.000000       0.000000       0.000000   25049.905210  -31613.294857    1071.051872 
 4890000     279.457064   -4689.519573   -5523.361007       0.000000       0.000000       0.000000   25005.693238  -31612.392089    1083.337845 
 4900000     302.846474   -4670.977567   -5574.608107       0.000000       0.000000       0.000000   24971.815402  -31611.003562    1064.580052 
 4910000     303.500268   -4572.133340   -5477.714667       0.000000       0.000000       0.000000   25073.068200  -31608.154243    1057.371377 
 4920000     293.062522   -4631.129174   -5505.566447       0.000000       0.000000       0.000000   24999.280352  -31608.569945    1103.723146 
 4930000     300.865352   -4555.731089   -5453.450378       0.000000       0.000000       0.000000   25081.139313  -31605.266341    1070.676650 
 4940000     297.753525   -4615.530693   -5503.964939       0.000000       0.000000       0.000000   24980.668075  -31610.077611    1125.444598 
 4950000     298.284349   -4559.577640   -5449.595753       0.000000       0.000000       0.000000   25110.056850  -31608.318404    1048.665801 
 4960000     290.979304   -4621.101842   -5489.323232       0.000000       0.000000       0.000000   25059.755070  -31605.231583    1056.153282 
 4970000     300.056816   -4616.677715   -5511.984501       0.000000       0.000000       0.000000   24984.658730  -31612.227077    1115.583845 
 4980000     297.520960   -4650.923911   -5538.664232       0.000000       0.000000       0.000000   24973.303547  -31611.300482    1099.332703 
 4990000     295.524463   -4590.552723   -5472.335914       0.000000       0.000000       0.000000   25037.505703  -31605.946450    1096.104833 
 5000000     298.936098   -4639.324181   -5531.286978       0.000000       0.000000       0.000000   25035.319595  -31607.433183    1040.826609 
Loop time of 9786.52 on 8 procs for 5000000 steps with 1503 atoms

Performance: 44.142 ns/day, 0.544 hours/ns, 510.907 timesteps/s
99.2% CPU use with 8 MPI tasks x 1 OpenMP threads

MPI task timing breakdown:
Section |  min time  |  avg time  |  max time  |%varavg| %total
---------------------------------------------------------------
Pair    | 4850       | 4865.4     | 4881.3     |  14.9 | 49.71
Bond    | 1.3393     | 1.448      | 1.5289     |   5.9 |  0.01
Kspace  | 2636.5     | 2648.3     | 2665.3     |  20.8 | 27.06
Neigh   | 352.42     | 352.55     | 352.7      |   0.5 |  3.60
Comm    | 453.75     | 470.87     | 489.38     |  43.4 |  4.81
Output  | 2.0184     | 2.4336     | 2.6685     |  12.1 |  0.02
Modify  | 1332.5     | 1384.7     | 1437.2     |  70.4 | 14.15
Other   |            | 60.83      |            |       |  0.62

Nlocal:    187.875 ave 203 max 175 min
Histogram: 1 1 1 1 1 0 1 1 0 1
Nghost:    4595.62 ave 4677 max 4515 min
Histogram: 1 1 1 0 1 0 1 2 0 1
Neighs:    67057.8 ave 74002 max 62536 min
Histogram: 1 2 0 1 1 2 0 0 0 1

Total # of neighbors = 536462
Ave neighs/atom = 356.927
Ave special neighs/atom = 2
Neighbor list builds = 217156
Dangerous builds = 0
Total wall time: 3:15:59
