LAMMPS (3 Mar 2020)
  using 1 OpenMP thread(s) per MPI task
#CXE2
variable    lambda1  index   0.00922
variable    lambda2  index   0.04794
variable    lambda3  index   0.11505
variable    lambda4  index   0.20634
variable    lambda5  index   0.31608
variable    lambda6  index   0.43738
variable    lambda7  index   0.56262
variable    lambda8  index   0.68392
variable    lambda9  index   0.79366
variable    lambda10  index   0.88495
variable    lambda11  index   0.95206
variable    lambda12  index   0.99078

variable    lambda00  equal   ${lambda5}
variable    lambda00  equal   0.31608
variable    q10 equal -0.8476*v_lambda00
variable    q20 equal  0.4238*v_lambda00
variable    lambda01  equal   (v_lambda00-0.002)
variable    q11 equal -0.8476*v_lambda01
variable    q21 equal  0.4238*v_lambda01
variable    lambda02  equal   (v_lambda00+0.002)
variable    q12 equal -0.8476*v_lambda02
variable    q22 equal  0.4238*v_lambda02

atom_style	full
units		real
dimension	3
boundary	p p p
bond_style     	harmonic
angle_style    	harmonic

pair_style      hybrid     lj/cut/coul/long 10.0     lj/cut/coul/long/soft 1 0.5 10.0 10.0
pair_modify     shift yes mix geometric

kspace_style   	pppm 1e-5

read_data   lmp.data
  orthogonal box = (0 0 0) to (24 24 24)
  2 by 2 by 2 MPI processor grid
  reading atoms ...
  1503 atoms
  scanning bonds ...
  2 = max bonds/atom
  scanning angles ...
  1 = max angles/atom
  reading bonds ...
  1002 bonds
  reading angles ...
  501 angles
  2 = max # of 1-2 neighbors
  1 = max # of 1-3 neighbors
  1 = max # of 1-4 neighbors
  2 = max # of special neighbors
  special bonds CPU = 0.000995185 secs
  read_data CPU = 0.00758132 secs
include     lmp.setting
# ~~~~~BONDS~~~~~
# bond_coeff type k(kcal/mol/ang**2)  r0 (ang)
bond_coeff  1  600.000  1.000
bond_coeff  2  600.000  1.000

# ~~~~~ANGLES~~~~~
# angle_coeff type k(kcal/mol/rad**2)  theta_0 (degrees)
angle_coeff  1   75.000 109.470
angle_coeff  2   75.000 109.470

set         type 3 charge ${q10}
set         type 3 charge -0.267909408
  1 settings made for charge
set         type 4 charge ${q20}
set         type 4 charge 0.133954704
  2 settings made for charge

pair_coeff  1   1   lj/cut/coul/long   0.1553500  3.16600
pair_coeff  2   2   lj/cut/coul/long   0.0000000  1.00000
pair_coeff  3   3   lj/cut/coul/long   0.1553500  3.16600
pair_coeff  4   4   lj/cut/coul/long   0.0000000  1.00000

pair_coeff  1   3   lj/cut/coul/long/soft  0.1553500  3.16600  ${lambda00}
pair_coeff  1   3   lj/cut/coul/long/soft  0.1553500  3.16600  0.31608
pair_coeff  2   3   lj/cut/coul/long/soft  0.0000000  1.00000  ${lambda00}
pair_coeff  2   3   lj/cut/coul/long/soft  0.0000000  1.00000  0.31608

pair_coeff  1   4   lj/cut/coul/long/soft  0.0000000  1.00000  ${lambda00}
pair_coeff  1   4   lj/cut/coul/long/soft  0.0000000  1.00000  0.31608
pair_coeff  2   4   lj/cut/coul/long/soft  0.0000000  1.00000  ${lambda00}
pair_coeff  2   4   lj/cut/coul/long/soft  0.0000000  1.00000  0.31608

fix 		fShakeSPCE all shake 0.0001 20 0 b 1 2 a 1 2
  0 = # of size 2 clusters
  0 = # of size 3 clusters
  0 = # of size 4 clusters
  501 = # of frozen angles
  find clusters CPU = 0.000351541 secs

timestep    1.0
run_style   verlet

fix         fxnpt all npt temp 300.0 300.0 100.0 iso 1.0 1.0 1000

thermo_style    custom step etotal pe ecoul elong evdwl
thermo_modify   format float %20.12f
thermo		1

rerun ${lambda00}.lammpstrj dump x y z box yes
rerun 0.31608.lammpstrj dump x y z box yes
PPPM initialization ...
  using 12-bit tables for long-range coulomb (src/kspace.cpp:332)
  G vector (1/distance) = 0.315108
  grid = 24 24 24
  stencil order = 5
  estimated absolute RMS force accuracy = 0.00171076
  estimated relative force accuracy = 5.15191e-06
  using double precision MKL FFT
  3d grid and FFT values/proc = 6859 1728
Neighbor list info ...
  update every 1 steps, delay 10 steps, check yes
  max neighbors/atom: 2000, page size: 100000
  master list distance cutoff = 12
  ghost atom cutoff = 12
  binsize = 6, bins = 4 4 4
  3 neighbor lists, perpetual/occasional/extra = 3 0 0
  (1) pair lj/cut/coul/long, perpetual, skip from (3)
      attributes: half, newton on
      pair build: skip
      stencil: none
      bin: none
  (2) pair lj/cut/coul/long/soft, perpetual, skip from (3)
      attributes: half, newton on
      pair build: skip
      stencil: none
      bin: none
  (3) neighbor class addition, perpetual
      attributes: half, newton on
      pair build: half/bin/newton
      stencil: half/bin/3d/newton
      bin: standard
Per MPI rank memory allocation (min/avg/max) = 9.733 | 9.736 | 9.739 Mbytes
Step TotEng PotEng E_coul E_long E_vdwl 
       0   -5541.193090163240   -5541.193090163240   25122.823829413501  -31787.450302374888    1123.433382798148 
    1000   -5484.349563535798   -5484.349563535798   25205.334496265379  -31780.155951021923    1090.471891220745 
    2000   -5542.391296958409   -5542.391296958409   25121.572804973926  -31784.796471990623    1120.832370058292 
    3000   -5535.491822856711   -5535.491822856711   25170.223085652018  -31780.906905980351    1075.191997471627 
    4000   -5539.009831997984   -5539.009831997984   25146.315442576790  -31785.573279263004    1100.248004688229 
    5000   -5549.249322778171   -5549.249322778171   25166.811545581346  -31788.586320290215    1072.525451930703 
    6000   -5536.272835149724   -5536.272835149724   25155.342620335236  -31782.179679160967    1090.564223676007 
    7000   -5517.955666929545   -5517.955666929545   25177.719190199859  -31783.734767840881    1088.059910711480 
    8000   -5534.949141906458   -5534.949141906458   25198.844918835865  -31785.478286316727    1051.684225574407 
    9000   -5528.034485038461   -5528.034485038461   25173.947589389314  -31784.855186099190    1082.873111671414 
   10000   -5598.632348438474   -5598.632348438474   25026.190454336451  -31783.178251821442    1158.355449046517 
   11000   -5544.812351594555   -5544.812351594555   25026.041426671669  -31789.813712386556    1218.959934120337 
   12000   -5496.459762549704   -5496.459762549704   25203.268069748505  -31784.124784192907    1084.396951894694 
   13000   -5411.628655349628   -5411.628655349628   25332.119793654259  -31783.863856407886    1040.115407403998 
   14000   -5514.214447905586   -5514.214447905586   25228.113928122937  -31785.877104319203    1043.548728290678 
   15000   -5451.329267395296   -5451.329267395296   25301.115877168297  -31782.827521902902    1030.382377339311 
   16000   -5500.398947551923   -5500.398947551923   25282.604478025092  -31786.612361020827    1003.608935443811 
   17000   -5526.215206399211   -5526.215206399211   25170.815423326323  -31784.235295596769    1087.204665871232 
   18000   -5536.285441884040   -5536.285441884040   25099.816722746051  -31782.834311071027    1146.732146440934 
   19000   -5528.338538618114   -5528.338538618114   25192.569876361009  -31782.564087006493    1061.655672027372 
   20000   -5483.819163914475   -5483.819163914475   25227.319130626449  -31785.529972197935    1074.391677657011 
   21000   -5502.312656576836   -5502.312656576836   25172.523014834653  -31789.184402672785    1114.348731261296 
   22000   -5511.713793279650   -5511.713793279650   25221.613824631324  -31783.427798417055    1050.100180506080 
   23000   -5542.066836447484   -5542.066836447484   25141.300860718442  -31790.341340028281    1106.973642862360 
   24000   -5491.451472669880   -5491.451472669880   25204.312854260621  -31786.291291651105    1090.526964720602 
   25000   -5444.668858890771   -5444.668858890771   25263.899845007851  -31782.889465743578    1074.320761844954 
   26000   -5481.469507673486   -5481.469507673486   25255.612608407424  -31783.851842492615    1046.769726411703 
   27000   -5513.379860906905   -5513.379860906905   25153.944289298750  -31783.907149867431    1116.582999661774 
   28000   -5523.600354373713   -5523.600354373713   25181.707687564522  -31786.885869528011    1081.577827589776 
   29000   -5546.313461137986   -5546.313461137986   25118.300751977047  -31785.268282621102    1120.654069506073 
   30000   -5517.106236218242   -5517.106236218242   25115.787711382349  -31784.231908177571    1151.337960576979 
   31000   -5557.294132737152   -5557.294132737152   25042.535815514217  -31793.518680133588    1193.688731882221 
   32000   -5539.725360586490   -5539.725360586490   25047.275360551852  -31786.820115275113    1199.819394136776 
   33000   -5488.264865546636   -5488.264865546636   25205.269319310282  -31784.174232154652    1090.640047297732 
   34000   -5498.641634344516   -5498.641634344516   25238.477838095365  -31785.495035956494    1048.375563516614 
   35000   -5501.479868582657   -5501.479868582657   25185.989575329957  -31787.087773641008    1099.618329728392 
   36000   -5574.570095827345   -5574.570095827345   25098.448618972787  -31784.914417378470    1111.895702578336 
   37000   -5539.575004885144   -5539.575004885144   25133.870440598348  -31783.312341746176    1109.866896262685 
   38000   -5536.160822455204   -5536.160822455204   25134.785422974837  -31788.429592905613    1117.483347475566 
   39000   -5561.301918838759   -5561.301918838759   25120.999110721521  -31784.554457874172    1102.253428313890 
   40000   -5535.731826836993   -5535.731826836993   25140.254558611876  -31786.195570462929    1110.209185014061 
   41000   -5544.425489605001   -5544.425489605001   25135.775345185386  -31783.892872879354    1103.692038088967 
   42000   -5528.786484081578   -5528.786484081578   25170.491295444812  -31786.910436251688    1087.632656725295 
   43000   -5516.477180324608   -5516.477180324608   25154.427682163303  -31784.857851092198    1113.952988604284 
   44000   -5536.783021980915   -5536.783021980915   25142.346027948886  -31789.237161760338    1110.108111830537 
   45000   -5521.548027159959   -5521.548027159959   25157.016215375639  -31788.587396024675    1110.023153489080 
   46000   -5519.265113623762   -5519.265113623762   25122.171654907135  -31783.417853675841    1141.981085144941 
   47000   -5533.047751322290   -5533.047751322290   25156.644091643411  -31785.219548917474    1095.527705951776 
   48000   -5562.230620655177   -5562.230620655177   25120.752097302589  -31783.437417482157    1100.454699524395 
   49000   -5523.977944644859   -5523.977944644859   25170.079653055313  -31787.372828682372    1093.315230982200 
   50000   -5549.516799041619   -5549.516799041619   25163.565861372139  -31788.425122838180    1075.342462424420 
   51000   -5449.563842117521   -5449.563842117521   25278.860241065071  -31787.061036374169    1058.636953191580 
   52000   -5493.835768377041   -5493.835768377041   25190.267395267987  -31782.864730826561    1098.761567181530 
   53000   -5479.120499242952   -5479.120499242952   25194.187955782334  -31780.877309139920    1107.568854114636 
   54000   -5548.473591564954   -5548.473591564954   25174.637929302949  -31788.222976088247    1065.111455220342 
   55000   -5521.194661875852   -5521.194661875852   25202.709344530784  -31782.494711009764    1058.590704603127 
   56000   -5542.960871772961   -5542.960871772961   25098.935101776176  -31779.603662349957    1137.707688800815 
   57000   -5588.709816889932   -5588.709816889932   25111.689168183311  -31787.177397535314    1086.778412462068 
   58000   -5599.821080180445   -5599.821080180445   25058.191031390419  -31789.108980947807    1131.096869376940 
   59000   -5498.270506400168   -5498.270506400168   25214.857204534590  -31785.245244381844    1072.117533447089 
   60000   -5506.506048478659   -5506.506048478659   25234.995516853640  -31787.414538938792    1045.912973606502 
   61000   -5497.179459103016   -5497.179459103016   25165.306987882766  -31789.705978231574    1127.219531245793 
   62000   -5515.633790921751   -5515.633790921751   25178.309732935562  -31790.224720314942    1096.281196457629 
   63000   -5559.944040926326   -5559.944040926326   25148.127869550106  -31788.340574673759    1080.268664197329 
   64000   -5506.896029998123   -5506.896029998123   25215.792107623114  -31787.558980074609    1064.870842453369 
   65000   -5534.082060295357   -5534.082060295357   25169.075608342031  -31787.300824881979    1084.143156244594 
   66000   -5527.345463892154   -5527.345463892154   25167.287714415470  -31788.918423889405    1094.285245581783 
   67000   -5482.723980460782   -5482.723980460782   25245.394361552029  -31782.066282685213    1053.947940672401 
   68000   -5485.774434449319   -5485.774434449319   25229.311387147878  -31781.923516946790    1066.837695349596 
   69000   -5541.807054407971   -5541.807054407971   25126.551045543987  -31788.472982289983    1120.114882338023 
   70000   -5502.596169554734   -5502.596169554734   25211.032026389206  -31789.957049220418    1076.328853276480 
   71000   -5497.129413404058   -5497.129413404058   25150.903482797781  -31787.919546831221    1139.886650629383 
   72000   -5533.495494786952   -5533.495494786952   25119.372132194858  -31783.806545190277    1130.938918208467 
   73000   -5520.842843417093   -5520.842843417093   25146.367430670693  -31784.706797105686    1117.496523017902 
   74000   -5500.170093020195   -5500.170093020195   25146.299347254397  -31789.302645379375    1142.833205104785 
   75000   -5520.500786914963   -5520.500786914963   25224.221195290651  -31786.480262754543    1041.758280548926 
   76000   -5487.135012265066   -5487.135012265066   25264.036917546855  -31787.478954884202    1036.307025072279 
   77000   -5536.599394933481   -5536.599394933481   25098.284113766986  -31783.272176754344    1148.388668053876 
   78000   -5544.215092252514   -5544.215092252514   25099.558692181530  -31781.878504521726    1138.104720087686 
   79000   -5503.991893167611   -5503.991893167611   25183.572885776462  -31783.334620109650    1095.769841165582 
   80000   -5482.671561178242   -5482.671561178242   25247.800057750319  -31783.697605181151    1053.225986252590 
   81000   -5526.569644688709   -5526.569644688709   25143.689706157071  -31789.522418805223    1119.263067959442 
   82000   -5529.472670309231   -5529.472670309231   25171.641487781279  -31787.887981058382    1086.773822967874 
   83000   -5525.210652866561   -5525.210652866561   25208.796964415378  -31787.202085671175    1053.194468389241 
   84000   -5521.757930825283   -5521.757930825283   25124.043766036120  -31783.434456067203    1137.632759205802 
   85000   -5551.306730202446   -5551.306730202446   25123.746532551835  -31785.890212466209    1110.836949711924 
   86000   -5555.735241845472   -5555.735241845472   25170.506269112411  -31786.374178237995    1060.132667280114 
   87000   -5512.462305287227   -5512.462305287227   25136.818294399469  -31789.334586634686    1140.053986947988 
   88000   -5543.918062890931   -5543.918062890931   25093.434188007013  -31783.975425344051    1146.623174446104 
   89000   -5543.018155642345   -5543.018155642345   25057.581635768947  -31786.610458584637    1186.010667173347 
   90000   -5491.127868188567   -5491.127868188567   25264.531623567029  -31787.105416005907    1031.445924250312 
   91000   -5552.190444251057   -5552.190444251057   25203.274625240207  -31785.871293230543    1030.406223739275 
   92000   -5478.807312024532   -5478.807312024532   25241.827302575504  -31786.554340536182    1065.919725936150 
   93000   -5546.866688625054   -5546.866688625054   25153.303112633090  -31785.840325146466    1085.670523888322 
   94000   -5582.285336391353   -5582.285336391353   25029.799037003882  -31783.820041579482    1171.735668184248 
   95000   -5511.714404928465   -5511.714404928465   25231.326007427651  -31787.685235861059    1044.644823504943 
   96000   -5525.866231314212   -5525.866231314212   25212.919793419300  -31787.953439126220    1049.167414392705 
   97000   -5514.823190772753   -5514.823190772753   25153.412484751479  -31785.925361258924    1117.689685734695 
   98000   -5500.872744141154   -5500.872744141154   25190.759597727021  -31783.156787549458    1091.524445681284 
   99000   -5523.750532223454   -5523.750532223454   25178.574451043067  -31784.310131183513    1081.985147916992 
  100000   -5499.133777638574   -5499.133777638574   25155.557616645990  -31783.999943376140    1129.308549091578 
  101000   -5553.372137515726   -5553.372137515726   25123.168732920170  -31785.035092206970    1108.494221771072 
  102000   -5509.334774973879   -5509.334774973879   25198.973027574510  -31785.147056741898    1076.839254193514 
  103000   -5494.394135159404   -5494.394135159404   25215.420293663199  -31786.781691365188    1076.967262542584 
  104000   -5533.030209550885   -5533.030209550885   25192.226042948285  -31789.214196653516    1063.957944154347 
  105000   -5506.106022141659   -5506.106022141659   25153.424550676449  -31786.852176288197    1127.321603470090 
  106000   -5521.888209575649   -5521.888209575649   25218.826611033441  -31785.444624368545    1044.729803759453 
  107000   -5543.512140502986   -5543.512140502986   25117.848420618415  -31788.531849160976    1127.171288039573 
  108000   -5438.613047400071   -5438.613047400071   25355.926776587148  -31786.396272529233     991.856448542016 
  109000   -5513.017419274289   -5513.017419274289   25179.246009405302  -31783.214976330786    1090.951547651195 
  110000   -5498.836454561439   -5498.836454561439   25200.311700263068  -31784.925350310525    1085.777195486019 
  111000   -5516.081371780940   -5516.081371780940   25181.538677910212  -31786.910004773843    1089.289955082692 
  112000   -5507.560145984564   -5507.560145984564   25236.430678148448  -31782.998465371045    1039.007641238029 
  113000   -5403.844429333771   -5403.844429333771   25280.471060287353  -31783.538320332995    1099.222830711868 
  114000   -5531.250747843482   -5531.250747843482   25139.836004547658  -31784.558949584494    1113.472197193349 
  115000   -5554.956907275620   -5554.956907275620   25130.220073391363  -31786.883077115323    1101.706096448338 
  116000   -5439.916700943904   -5439.916700943904   25345.648919347950  -31781.467628369432     995.902008077576 
  117000   -5531.142410159089   -5531.142410159089   25128.843609788015  -31788.225182557166    1128.239162610063 
  118000   -5555.264052556435   -5555.264052556435   25143.550325582630  -31785.511882829276    1086.697504690215 
  119000   -5534.935860474623   -5534.935860474623   25135.513488780383  -31785.636993905271    1115.187644650264 
  120000   -5559.916356193178   -5559.916356193178   25107.447229056543  -31788.445499276178    1121.081914026458 
  121000   -5599.700444357139   -5599.700444357139   25120.374199479269  -31789.327947730711    1069.253303894307 
  122000   -5508.065114154582   -5508.065114154582   25213.996134197820  -31789.187105678713    1067.125857326310 
  123000   -5550.683684845681   -5550.683684845681   25111.862800432118  -31788.041823151172    1125.495337873374 
  124000   -5546.347670659707   -5546.347670659707   25137.078113515992  -31785.440332057558    1102.014547881859 
  125000   -5589.049700319680   -5589.049700319680   25100.007080560405  -31787.070160753661    1098.013379873581 
  126000   -5563.920502802404   -5563.920502802404   25142.235313379744  -31789.179861325105    1083.024045142958 
  127000   -5538.301067580989   -5538.301067580989   25158.059112200386  -31780.691837964685    1084.331658183304 
  128000   -5516.189063661415   -5516.189063661415   25177.279833697932  -31787.653557124748    1094.184659765401 
  129000   -5491.326161316403   -5491.326161316403   25198.202305045073  -31781.905816282437    1092.377349920962 
  130000   -5533.874199139831   -5533.874199139831   25124.082297399313  -31785.230061587641    1127.273565048495 
  131000   -5555.513570180246   -5555.513570180246   25024.113917805582  -31778.476868227041    1198.849380241209 
  132000   -5584.495826073140   -5584.495826073140   25089.019139464872  -31784.806223753334    1111.291258215323 
  133000   -5585.522798600650   -5585.522798600650   25088.639280973955  -31787.141360167247    1112.979280592642 
  134000   -5540.723368339783   -5540.723368339783   25087.338345899650  -31788.528552925345    1160.466838685916 
  135000   -5556.873539672921   -5556.873539672921   25105.685748449068  -31785.870983884812    1123.311695762823 
  136000   -5552.462402678280   -5552.462402678280   25131.158059467896  -31787.669015801734    1104.048553655558 
  137000   -5501.545881349168   -5501.545881349168   25173.099560898470  -31785.793514624220    1111.148072376584 
  138000   -5502.858526811026   -5502.858526811026   25191.685231646243  -31782.903244419216    1088.359485961948 
  139000   -5575.406943310169   -5575.406943310169   25096.565911661273  -31785.993403735793    1114.020548764350 
  140000   -5537.626856196515   -5537.626856196515   25070.584545207552  -31787.039168460764    1178.827767056701 
  141000   -5597.788084707401   -5597.788084707401   25103.776351669138  -31782.926490658734    1081.362054282200 
  142000   -5564.047583015938   -5564.047583015938   25103.268055252182  -31786.396912483189    1119.081274215069 
  143000   -5514.154656779283   -5514.154656779283   25147.134500369575  -31784.094842050890    1122.805684902033 
  144000   -5549.367893130511   -5549.367893130511   25110.109856950112  -31787.813125357097    1128.335375276470 
  145000   -5472.532286059934   -5472.532286059934   25197.723084532980  -31786.745612592000    1116.490241999086 
  146000   -5525.256949793878   -5525.256949793878   25102.193245705457  -31787.651075144877    1160.200879645540 
  147000   -5568.870292050644   -5568.870292050644   25126.217781543302  -31786.366177248739    1091.278103654795 
  148000   -5540.305823401402   -5540.305823401402   25192.518112651014  -31788.470506195546    1055.646570143133 
  149000   -5487.201757657887   -5487.201757657887   25198.713020299820  -31783.464375477437    1097.549597519733 
  150000   -5512.035053764124   -5512.035053764124   25211.717538332465  -31784.559351672764    1060.806759576175 
  151000   -5458.873431299566   -5458.873431299566   25301.798220126169  -31780.889010866988    1020.217359441254 
  152000   -5588.458589761733   -5588.458589761733   25001.381937958191  -31787.202471033717    1197.361943313793 
  153000   -5493.506705883457   -5493.506705883457   25178.582087371185  -31784.204678832597    1112.115885577951 
  154000   -5573.353815929549   -5573.353815929549   25128.861607127605  -31786.196013034958    1083.980589977803 
  155000   -5511.629605189963   -5511.629605189963   25196.016562971094  -31787.327134877600    1079.680966716541 
  156000   -5534.412450004813   -5534.412450004813   25119.412197632504  -31781.498012023236    1127.673364385918 
  157000   -5559.170892077727   -5559.170892077727   25152.773374184009  -31786.236979557565    1074.292713295831 
  158000   -5506.537269360429   -5506.537269360429   25218.200730639030  -31785.810540312803    1061.072540313347 
  159000   -5503.941898341283   -5503.941898341283   25166.325479249575  -31786.809752914633    1116.542375323775 
  160000   -5546.802759620121   -5546.802759620121   25218.424682694837  -31786.002479995870    1020.775037680911 
  161000   -5518.498315078734   -5518.498315078734   25200.641768832218  -31787.130295739571    1067.990211828619 
  162000   -5587.426363993829   -5587.426363993829   25132.123353596042  -31785.324143846774    1065.774426256904 
  163000   -5534.280711931107   -5534.280711931107   25127.677218711418  -31781.608345323941    1119.650414681414 
  164000   -5530.229347974939   -5530.229347974939   25173.716344828237  -31781.321567541778    1077.375874738604 
  165000   -5544.163005049431   -5544.163005049431   25158.504068274709  -31783.465704524031    1080.798631199889 
  166000   -5498.150261505758   -5498.150261505758   25233.374051074523  -31785.421625802304    1053.897313222019 
  167000   -5501.651633835652   -5501.651633835652   25182.544440300095  -31786.558269788686    1102.362195652939 
  168000   -5501.731261066190   -5501.731261066190   25178.879472836707  -31787.148688792233    1106.537954889334 
  169000   -5424.155308822603   -5424.155308822603   25357.794774204758  -31782.252786191730    1000.302703164368 
  170000   -5492.226145120523   -5492.226145120523   25195.725226461363  -31787.864476629449    1099.913105047561 
  171000   -5515.683284478320   -5515.683284478320   25181.285049778009  -31790.192891091196    1093.224556834865 
  172000   -5549.575608057494   -5549.575608057494   25115.057332361979  -31783.744666026138    1119.111725606661 
  173000   -5471.478923218692   -5471.478923218692   25267.783213757932  -31783.414438382148    1044.152301405531 
  174000   -5550.688226675473   -5550.688226675473   25140.871743124746  -31783.000157643215    1091.440187842997 
  175000   -5575.630157862422   -5575.630157862422   24995.224039224016  -31785.755919458690    1214.901722372254 
  176000   -5568.964284255613   -5568.964284255613   25141.991332414978  -31788.686860869093    1077.731244198502 
  177000   -5554.613980811981   -5554.613980811981   25100.881170100842  -31787.035971249872    1131.540820337053 
  178000   -5516.939390327345   -5516.939390327345   25128.549726650494  -31783.343310468597    1137.854193490753 
  179000   -5561.737971050039   -5561.737971050039   25122.254634276589  -31786.952077566646    1102.959472240025 
  180000   -5569.133441994138   -5569.133441994138   25115.787670462683  -31783.700530351041    1098.779417894219 
  181000   -5519.299015675297   -5519.299015675297   25159.515830202468  -31785.386873181491    1106.572027303725 
  182000   -5539.774384652108   -5539.774384652108   25161.591173471887  -31787.767501793467    1086.401943669473 
  183000   -5478.004479756088   -5478.004479756088   25233.812787458915  -31786.816281676314    1074.999014461309 
  184000   -5536.678594364123   -5536.678594364123   25110.242116354675  -31787.264915626052    1140.344204907256 
  185000   -5474.702746773808   -5474.702746773808   25171.139962433677  -31784.735523391217    1138.892814183732 
  186000   -5490.219637188009   -5490.219637188009   25199.929328994833  -31787.697470748299    1097.548504565462 
  187000   -5564.304222484086   -5564.304222484086   25105.973151406204  -31782.561353913643    1112.283980023351 
  188000   -5528.371900473587   -5528.371900473587   25161.591831684476  -31785.088476392379    1095.124744234320 
  189000   -5503.405970038406   -5503.405970038406   25198.170189146877  -31786.160488649253    1084.584329463968 
  190000   -5470.975755997744   -5470.975755997744   25241.533843230864  -31785.844238099155    1073.334638870548 
  191000   -5495.707340685520   -5495.707340685520   25196.140189823476  -31782.014625116335    1090.167094607337 
  192000   -5534.281029688806   -5534.281029688806   25178.955944801506  -31787.352645167804    1074.115670677486 
  193000   -5545.857640149155   -5545.857640149155   25124.041096069002  -31780.837240542092    1110.938504323933 
  194000   -5467.449700509344   -5467.449700509344   25253.453176747120  -31788.469943939803    1067.567066683338 
  195000   -5437.330415161086   -5437.330415161086   25318.080244463032  -31780.854449643139    1025.443790019017 
  196000   -5524.886556933583   -5524.886556933583   25151.551684700444  -31780.577204496592    1104.138962862569 
  197000   -5525.438039010936   -5525.438039010936   25175.711105051607  -31780.730191281207    1079.581047218662 
  198000   -5518.511220785625   -5518.511220785625   25127.578965834604  -31784.280532650027    1138.190346029793 
  199000   -5483.090191757507   -5483.090191757507   25183.090835870818  -31789.200950105198    1123.019922476876 
  200000   -5550.520457462626   -5550.520457462626   25111.867071471293  -31783.830495316375    1121.442966382456 
  201000   -5531.147419715780   -5531.147419715780   25214.488242914264  -31788.093094671109    1042.457432041061 
  202000   -5503.019454492274   -5503.019454492274   25160.058050803418  -31786.406889712471    1123.329384416784 
  203000   -5545.208154704378   -5545.208154704378   25085.520062257208  -31788.673418920240    1157.945201958659 
  204000   -5519.057270275232   -5519.057270275232   25131.268318841099  -31784.102029150010    1133.776440033674 
  205000   -5506.664933367741   -5506.664933367741   25176.005348292092  -31786.317856641876    1103.647574982042 
  206000   -5499.061546587458   -5499.061546587458   25158.724886599241  -31779.277781373832    1121.491348187135 
  207000   -5509.260148815905   -5509.260148815905   25123.017693886410  -31787.700363417040    1155.422520714725 
  208000   -5536.665125552296   -5536.665125552296   25107.503526209930  -31784.414715569685    1140.246063807462 
  209000   -5526.523487661001   -5526.523487661001   25102.629426971154  -31788.910807945915    1159.757893313762 
  210000   -5516.038881264481   -5516.038881264481   25175.631192722380  -31787.714262229019    1096.044188242163 
  211000   -5560.519459001189   -5560.519459001189   25120.463507986929  -31787.546650229531    1106.563683241412 
  212000   -5497.677961384121   -5497.677961384121   25288.603323744246  -31785.672852151223     999.391567022855 
  213000   -5540.908258577172   -5540.908258577172   25149.824998310483  -31779.878528843590    1089.145271955932 
  214000   -5522.055162571243   -5522.055162571243   25239.642891552729  -31787.131662051917    1025.433607927941 
  215000   -5534.821255015628   -5534.821255015628   25122.065991691888  -31789.934923500605    1133.047676793085 
  216000   -5444.526458559489   -5444.526458559489   25310.437994250467  -31785.640047342746    1030.675594532784 
  217000   -5479.591886218182   -5479.591886218182   25261.752151763838  -31785.860635287678    1044.516597305657 
  218000   -5571.498553697402   -5571.498553697402   25110.202553542600  -31785.990807865554    1104.289700625552 
  219000   -5516.773188502320   -5516.773188502320   25219.086227934764  -31783.690170724109    1047.830754287023 
  220000   -5497.933365387733   -5497.933365387733   25220.716211419262  -31782.447886724804    1063.798309917813 
  221000   -5484.605983684261   -5484.605983684261   25183.443327679845  -31787.076681425649    1119.027370061544 
  222000   -5504.775968401962   -5504.775968401962   25260.912156753711  -31784.035887766699    1018.347762611026 
  223000   -5557.878702422200   -5557.878702422200   25121.957735935477  -31787.396867037107    1107.560428679433 
  224000   -5482.881970406343   -5482.881970406343   25213.312254871154  -31782.780509622920    1086.586284345422 
  225000   -5550.976258014918   -5550.976258014918   25164.999578020670  -31787.881201643566    1071.905365607980 
  226000   -5556.202211237221   -5556.202211237221   25146.646624822381  -31786.694912920888    1083.846076861283 
  227000   -5527.878843619004   -5527.878843619004   25156.054706239403  -31789.836932928734    1105.903383070331 
  228000   -5537.240530591880   -5537.240530591880   25151.987788041959  -31789.432045906735    1100.203727272892 
  229000   -5527.936886901480   -5527.936886901480   25213.119334203424  -31784.590536928736    1043.534315823831 
  230000   -5493.896604368936   -5493.896604368936   25178.361844154024  -31787.520684440024    1115.262235917063 
  231000   -5510.781326400102   -5510.781326400102   25184.997500314501  -31785.106930447757    1089.328103733153 
  232000   -5554.065107238959   -5554.065107238959   25086.322108638233  -31786.674200613958    1146.286984736767 
  233000   -5549.945289012539   -5549.945289012539   25092.209727330563  -31788.392789390062    1146.237773046961 
  234000   -5521.728611651113   -5521.728611651113   25189.396011918299  -31786.646142791400    1075.521519221988 
  235000   -5454.696170447711   -5454.696170447711   25251.438232115859  -31784.133045103743    1077.998642540173 
  236000   -5520.336404851721   -5520.336404851721   25158.192975054244  -31785.514624618423    1106.985244712456 
  237000   -5490.165448750056   -5490.165448750056   25222.483363284133  -31784.313687314221    1071.664875280033 
  238000   -5525.913321439260   -5525.913321439260   25186.471271924296  -31784.691249836618    1072.306656473063 
  239000   -5458.884214004487   -5458.884214004487   25275.962508611086  -31787.506556702047    1052.659834086475 
  240000   -5542.080706575802   -5542.080706575802   25104.968426274987  -31788.220823646861    1141.171690796070 
  241000   -5469.825423186096   -5469.825423186096   25270.444480848993  -31779.353446069425    1039.083542034335 
  242000   -5580.167638594445   -5580.167638594445   25087.260425801003  -31784.584620109050    1117.156555713604 
  243000   -5530.016194433170   -5530.016194433170   25203.513294997341  -31789.174441653129    1055.644952222619 
  244000   -5548.673462342249   -5548.673462342249   25085.086633020735  -31783.733297313327    1149.973201950345 
  245000   -5492.347618008316   -5492.347618008316   25204.365115105458  -31787.286123336875    1090.573390223100 
  246000   -5581.513648710239   -5581.513648710239   25115.421537135830  -31786.783136981790    1089.847951135728 
  247000   -5538.742184426865   -5538.742184426865   25155.743098195177  -31787.582996632234    1093.097714010192 
  248000   -5575.216481296742   -5575.216481296742   25067.812215336970  -31780.940523127781    1137.911826494070 
  249000   -5576.605721487616   -5576.605721487616   25083.912533980776  -31786.555663127780    1126.037407659391 
  250000   -5543.395390051297   -5543.395390051297   25173.449210485727  -31788.791685029875    1071.947084492852 
  251000   -5460.413618950031   -5460.413618950031   25171.096257782487  -31779.168682837033    1147.658806104515 
  252000   -5510.034584087887   -5510.034584087887   25214.065714572036  -31788.821165068017    1064.720866408095 
  253000   -5526.916030543001   -5526.916030543001   25078.037191446518  -31788.868104331705    1183.914882342189 
  254000   -5469.255967103774   -5469.255967103774   25309.116640106433  -31784.881650270789    1006.509043060583 
  255000   -5503.159712935827   -5503.159712935827   25238.986148985925  -31786.229277817598    1044.083415895847 
  256000   -5545.326346824240   -5545.326346824240   25188.871953848960  -31786.589889828541    1052.391589155339 
  257000   -5518.643114623323   -5518.643114623323   25139.826507120430  -31782.933131490332    1124.463509746580 
  258000   -5468.100975544494   -5468.100975544494   25275.260270842369  -31786.157709815237    1042.796463428379 
  259000   -5537.746860542844   -5537.746860542844   25143.250794680025  -31785.420321299127    1104.422666076254 
  260000   -5489.659882615033   -5489.659882615033   25256.664406930668  -31784.906124982408    1038.581835436708 
  261000   -5535.277324496503   -5535.277324496503   25159.859775559933  -31790.080738310702    1094.943638254265 
  262000   -5518.612981679358   -5518.612981679358   25163.173217273605  -31784.366333447389    1102.580134494423 
  263000   -5482.419997275629   -5482.419997275629   25193.343066424539  -31782.795954904846    1107.032891204676 
  264000   -5529.558373719545   -5529.558373719545   25188.572242474329  -31788.698785612596    1070.568169418726 
  265000   -5505.116378574832   -5505.116378574832   25202.763463607513  -31782.945415022292    1075.065572839951 
  266000   -5517.966296167346   -5517.966296167346   25151.773415748303  -31786.128721988036    1116.389010072387 
  267000   -5607.729347431603   -5607.729347431603   25034.852608476580  -31786.582750810921    1144.000794902739 
  268000   -5473.452393312673   -5473.452393312673   25261.713787862645  -31788.803232607617    1053.637051432302 
  269000   -5548.124989255175   -5548.124989255175   25189.791564185580  -31782.005296731812    1044.088743291057 
  270000   -5519.474909366145   -5519.474909366145   25164.174406849346  -31784.267349168578    1100.618032953087 
  271000   -5553.925659066874   -5553.925659066874   25152.300534001475  -31785.913321325304    1079.687128256951 
  272000   -5498.872188291385   -5498.872188291385   25253.242395280875  -31786.883549153754    1034.768965581495 
  273000   -5602.373673775659   -5602.373673775659   25039.008798506169  -31789.024924034795    1147.642451752968 
  274000   -5532.584022196948   -5532.584022196948   25170.639048762150  -31785.512715590805    1082.289644631711 
  275000   -5546.249147856426   -5546.249147856426   25124.095461699733  -31783.721565451764    1113.376955895606 
  276000   -5552.390494082025   -5552.390494082025   25148.440754572875  -31787.156207622538    1086.324958967637 
  277000   -5481.997717635095   -5481.997717635095   25208.951019200591  -31782.462462170814    1091.513725335128 
  278000   -5566.092520839436   -5566.092520839436   25106.306594980710  -31787.976125027199    1115.577009207052 
  279000   -5523.947066804627   -5523.947066804627   25163.539559099299  -31787.476713916611    1099.990088012683 
  280000   -5539.062301408783   -5539.062301408783   25124.113830248622  -31781.757841160434    1118.581709503028 
  281000   -5492.788807296783   -5492.788807296783   25175.381714067837  -31786.266848297069    1118.096326932448 
  282000   -5525.374852429311   -5525.374852429311   25129.647069315553  -31787.360233128820    1132.338311383955 
  283000   -5547.777372099834   -5547.777372099834   25148.012532171211  -31786.940697061338    1091.150792790295 
  284000   -5590.738632300821   -5590.738632300821   25022.609820143953  -31785.432416214269    1172.083963769492 
  285000   -5485.871127913171   -5485.871127913171   25239.724161606442  -31786.919604154606    1061.324314634994 
  286000   -5582.319631624625   -5582.319631624625   25068.334239902972  -31785.916699365305    1135.262827837711 
  287000   -5480.947070847240   -5480.947070847240   25219.311837950136  -31785.930258890137    1085.671350092768 
  288000   -5507.511556704703   -5507.511556704703   25079.255134128591  -31785.872987774994    1199.106296941699 
  289000   -5539.142873255063   -5539.142873255063   25185.795307318902  -31789.148501935968    1064.210321362001 
  290000   -5511.657518687280   -5511.657518687280   25226.213027675440  -31786.671714289630    1048.801167926911 
  291000   -5472.527239894502   -5472.527239894502   25164.891119868451  -31786.386241914897    1148.967882151942 
  292000   -5517.375499217284   -5517.375499217284   25166.203983985695  -31782.715920269864    1099.136437066887 
  293000   -5509.033301865726   -5509.033301865726   25191.544075378893  -31785.522312777433    1084.944935532814 
  294000   -5471.082766795953   -5471.082766795953   25180.800581839860  -31784.462424689355    1132.579076053539 
  295000   -5515.281123377958   -5515.281123377958   25139.599169968496  -31783.376486231613    1128.496192885158 
  296000   -5584.232906745794   -5584.232906745794   25101.845501165277  -31786.004058619612    1099.925650708539 
  297000   -5582.552562345463   -5582.552562345463   25099.033709064704  -31787.316455006181    1105.730183596018 
  298000   -5489.916250276023   -5489.916250276023   25204.672648219221  -31786.379361142768    1091.790462647523 
  299000   -5554.814991805288   -5554.814991805288   25158.356479873823  -31786.719969103644    1073.548497424533 
  300000   -5540.942007660127   -5540.942007660127   25102.657339814592  -31785.122061857997    1141.522714383276 
  301000   -5517.844059978608   -5517.844059978608   25189.669096436632  -31785.722815284335    1078.209658869097 
  302000   -5530.475662523018   -5530.475662523018   25095.329968191218  -31788.110660266942    1162.305029552710 
  303000   -5535.170596553053   -5535.170596553053   25174.435143346906  -31784.823395693238    1075.217655793277 
  304000   -5470.944525733292   -5470.944525733292   25248.333957220559  -31785.389198031706    1066.110715077851 
  305000   -5498.608781619700   -5498.608781619700   25140.270000575656  -31783.020676198325    1144.141894002974 
  306000   -5516.947163981356   -5516.947163981356   25265.826086676938  -31783.084529685573    1000.311279027278 
  307000   -5487.328483210145   -5487.328483210145   25227.044338785487  -31783.996828025589    1069.624006029951 
  308000   -5440.450390705613   -5440.450390705613   25307.621174180604  -31781.104909579684    1033.033344693470 
  309000   -5481.823022568711   -5481.823022568711   25221.865932808112  -31785.926040009650    1082.237084632826 
  310000   -5510.595003921404   -5510.595003921404   25172.407866015572  -31788.113165622814    1105.110295685841 
  311000   -5567.301499255937   -5567.301499255937   25063.069509653345  -31785.645105001018    1155.274096091740 
  312000   -5576.014244470647   -5576.014244470647   25046.214226413118  -31789.048626457352    1166.820155573587 
  313000   -5527.224829754385   -5527.224829754385   25104.649094885051  -31779.102088759406    1147.228164119975 
  314000   -5563.893579549142   -5563.893579549142   25187.066465095362  -31790.637162379215    1039.677117734712 
  315000   -5599.199082631949   -5599.199082631949   25084.745049963429  -31786.937646897448    1102.993514302070 
  316000   -5519.606396980118   -5519.606396980118   25246.430879540319  -31784.409505629650    1018.372229109217 
  317000   -5530.142825150539   -5530.142825150539   25228.827869488086  -31790.020069668437    1031.049375029815 
  318000   -5595.169750259054   -5595.169750259054   25126.375200325430  -31788.062417391964    1066.517466807481 
  319000   -5548.296513076097   -5548.296513076097   25138.327601042572  -31787.415183667883    1100.791069549220 
  320000   -5578.731940301906   -5578.731940301906   25058.554480702831  -31788.165659158058    1150.879238153323 
  321000   -5541.249169243591   -5541.249169243591   25126.431737614352  -31788.536930670507    1120.856023812568 
  322000   -5542.797438830476   -5542.797438830476   25147.850799571337  -31788.297904406318    1097.649666004507 
  323000   -5477.335491791178   -5477.335491791178   25282.414592184363  -31785.119873527037    1025.369789551492 
  324000   -5527.280666617702   -5527.280666617702   25165.177175234356  -31786.616150040882    1094.158308188821 
  325000   -5556.990333096641   -5556.990333096641   25142.241114191169  -31787.765718494789    1088.534271206983 
  326000   -5510.559656514532   -5510.559656514532   25196.048283299708  -31785.054262586535    1078.446322772295 
  327000   -5546.439408267801   -5546.439408267801   25061.418250877843  -31786.364088205530    1178.506429059888 
  328000   -5547.684428554287   -5547.684428554287   25050.465478804501  -31790.422268978204    1192.272361619415 
  329000   -5553.928871432316   -5553.928871432316   25192.847738282078  -31786.344915614420    1039.568305900024 
  330000   -5491.101941437500   -5491.101941437500   25225.825903068890  -31787.086487938221    1070.158643431833 
  331000   -5527.652653733130   -5527.652653733130   25172.138679285152  -31785.996913414609    1086.205580396328 
  332000   -5494.326311023531   -5494.326311023531   25260.881954200602  -31786.261355844323    1031.053090620193 
  333000   -5553.868591615857   -5553.868591615857   25115.748382591100  -31790.271031825192    1120.654057618232 
  334000   -5551.315321781127   -5551.315321781127   25122.971297099688  -31785.352176535554    1111.065557654737 
  335000   -5526.023436574276   -5526.023436574276   25158.812105482117  -31786.206387266622    1101.370845210225 
  336000   -5512.877166055005   -5512.877166055005   25199.066680117070  -31789.047292516840    1077.103446344766 
  337000   -5465.524608188254   -5465.524608188254   25234.666278866542  -31785.039257846478    1084.848370791689 
  338000   -5512.484698773602   -5512.484698773602   25204.731382971440  -31791.331791562723    1074.115709817680 
  339000   -5452.914096486551   -5452.914096486551   25243.660517989658  -31782.824623563494    1086.250009087285 
  340000   -5448.931622162763   -5448.931622162763   25245.737558048080  -31787.498183209937    1092.829002999093 
  341000   -5534.555872500776   -5534.555872500776   25126.635962676581  -31781.550813224942    1120.358978047582 
  342000   -5510.360063434018   -5510.360063434018   25246.526531077172  -31786.863017771429    1029.976423260241 
  343000   -5466.084321427432   -5466.084321427432   25254.968609196265  -31784.409450215233    1063.356519591536 
  344000   -5468.204205568290   -5468.204205568290   25172.793576774347  -31783.933261288767    1142.935478946124 
  345000   -5449.142452618096   -5449.142452618096   25211.452717477747  -31785.343409778838    1124.748239682989 
  346000   -5531.721579894784   -5531.721579894784   25102.711187252924  -31785.274584479372    1150.841817331660 
  347000   -5519.573883736935   -5519.573883736935   25171.546591539129  -31787.818979947413    1096.698504671348 
  348000   -5524.099185956136   -5524.099185956136   25133.471675051602  -31782.994277484788    1125.423416477046 
  349000   -5515.193652469814   -5515.193652469814   25241.306944276999  -31788.113707055880    1031.613110309064 
  350000   -5534.797573809592   -5534.797573809592   25176.358997881805  -31787.011938219584    1075.855366528183 
  351000   -5553.788684242780   -5553.788684242780   25168.797795027775  -31783.651206273043    1061.064727002488 
  352000   -5548.029539394465   -5548.029539394465   25153.604670758166  -31786.581987438862    1084.947777286229 
  353000   -5525.212901991399   -5525.212901991399   25127.654762441514  -31786.044516349357    1133.176851916447 
  354000   -5493.931261244838   -5493.931261244838   25187.764833463345  -31788.012491760132    1106.316397051947 
  355000   -5532.202565426443   -5532.202565426443   25135.083926536750  -31786.873020717467    1119.586528754272 
  356000   -5484.959814797039   -5484.959814797039   25186.699869913304  -31782.927995633589    1111.268310923248 
  357000   -5466.933874674887   -5466.933874674887   25271.232250108333  -31786.028282503848    1047.862157720631 
  358000   -5499.991816091853   -5499.991816091853   25240.684762588029  -31785.219184216774    1044.542605536892 
  359000   -5479.806833298026   -5479.806833298026   25187.669599182882  -31785.017852155703    1117.541419674800 
  360000   -5550.194426687307   -5550.194426687307   25109.392796570912  -31787.650263365849    1128.063040107630 
  361000   -5542.886356362407   -5542.886356362407   25063.965714277074  -31785.914380612299    1179.062309972816 
  362000   -5490.707130249168   -5490.707130249168   25199.192581802701  -31786.335696247428    1096.435984195554 
  363000   -5565.427011080152   -5565.427011080152   25121.004994277857  -31789.962779252557    1103.530773894552 
  364000   -5530.727293330441   -5530.727293330441   25125.993113717162  -31786.256527534064    1129.536120486460 
  365000   -5467.871584889166   -5467.871584889166   25237.412519309986  -31781.323600424817    1076.039496225667 
  366000   -5465.902338845248   -5465.902338845248   25286.591321042757  -31780.955774483409    1028.462114595404 
  367000   -5478.530234829534   -5478.530234829534   25235.140351497983  -31786.250900307259    1072.580313979745 
  368000   -5529.409939918653   -5529.409939918653   25160.922936979296  -31786.132402492858    1095.799525594908 
  369000   -5516.645678414388   -5516.645678414388   25258.819334986576  -31785.797698419403    1010.332685018439 
  370000   -5494.787568082997   -5494.787568082997   25253.283250531753  -31785.150610379893    1037.079791765145 
  371000   -5501.347776480856   -5501.347776480856   25124.738864491548  -31783.961839912135    1157.875198939733 
  372000   -5518.208706397974   -5518.208706397974   25151.433039383981  -31786.675911689905    1117.034165907947 
  373000   -5552.429094956115   -5552.429094956115   25116.909506758318  -31784.579926821676    1115.241325107248 
  374000   -5494.363101447005   -5494.363101447005   25179.721740229234  -31783.024544762808    1108.939703086570 
  375000   -5468.846042150919   -5468.846042150919   25198.201889200365  -31780.429569033116    1113.381637681834 
  376000   -5497.481594360601   -5497.481594360601   25159.396530630991  -31783.716165516598    1126.838040525005 
  377000   -5527.979419694733   -5527.979419694733   25133.552740454594  -31789.565329385703    1128.033169236379 
  378000   -5520.021488354669   -5520.021488354669   25136.175271295735  -31785.975850802817    1129.779091152412 
  379000   -5475.925262556364   -5475.925262556364   25285.118722549512  -31782.784715238729    1021.740730132849 
  380000   -5527.072052237785   -5527.072052237785   25124.829472245234  -31786.811943214034    1134.910418731014 
  381000   -5484.600451759688   -5484.600451759688   25270.459980733194  -31786.848124968808    1031.787692475926 
  382000   -5556.774970735638   -5556.774970735638   25155.370726889134  -31786.443110337175    1074.297412712403 
  383000   -5481.177837118878   -5481.177837118878   25232.243357461288  -31782.901856577784    1069.480661997620 
  384000   -5550.778857791363   -5550.778857791363   25111.703993916028  -31788.216847116415    1125.733995409028 
  385000   -5558.465701736837   -5558.465701736837   25115.817376002407  -31787.668910933615    1113.385833194369 
  386000   -5552.969535123622   -5552.969535123622   25163.045309792738  -31786.675377229818    1070.660532313459 
  387000   -5544.915843974570   -5544.915843974570   25079.110774990702  -31788.325466586877    1164.298847621611 
  388000   -5584.367627019816   -5584.367627019816   25092.729036725268  -31789.596121519749    1112.499457774670 
  389000   -5504.592256293618   -5504.592256293618   25083.665244458385  -31784.589875199774    1196.332374447771 
  390000   -5534.067022644034   -5534.067022644034   25083.660014021461  -31787.156334775398    1169.429298109904 
  391000   -5482.174332004408   -5482.174332004408   25229.152807530088  -31781.944764483753    1070.617624949263 
  392000   -5551.754428532946   -5551.754428532946   25121.365897357060  -31784.022792221735    1110.902466331725 
  393000   -5543.077691673916   -5543.077691673916   25086.579813681357  -31785.153888822453    1155.496383467178 
  394000   -5522.525322318546   -5522.525322318546   25205.984975971525  -31784.273854561256    1055.763556271182 
  395000   -5474.978550377269   -5474.978550377269   25167.340670248581  -31784.821729086656    1142.502508460810 
  396000   -5514.357377024837   -5514.357377024837   25175.486657659232  -31785.295277045836    1095.451242361763 
  397000   -5519.007672188785   -5519.007672188785   25144.077839648155  -31786.838989315995    1123.753477479060 
  398000   -5460.698222660274   -5460.698222660274   25299.410637489313  -31782.996650850961    1022.887790701377 
  399000   -5571.093765867001   -5571.093765867001   25108.292075708483  -31784.908393489546    1105.522551914061 
  400000   -5530.870046579490   -5530.870046579490   25118.794720986891  -31783.668259731865    1134.003492165488 
  401000   -5506.899830686471   -5506.899830686471   25160.488682105475  -31785.978075692728    1118.589562900790 
  402000   -5588.360129445937   -5588.360129445937   25125.233249834655  -31789.693905374475    1076.100526093882 
  403000   -5490.815732021365   -5490.815732021365   25211.362970745460  -31787.209346950651    1085.030644183821 
  404000   -5520.798113091601   -5520.798113091601   25205.656409273579  -31787.590670386489    1061.136148021307 
  405000   -5498.924946591411   -5498.924946591411   25177.285003012112  -31784.643746092774    1108.433796489248 
  406000   -5500.303508561621   -5500.303508561621   25202.385282581450  -31786.096605324485    1083.407814181412 
  407000   -5456.963884928460   -5456.963884928460   25266.924169659866  -31789.445426043465    1065.557371455141 
  408000   -5533.205056317780   -5533.205056317780   25145.492991452156  -31787.947704339644    1109.249656569702 
  409000   -5524.441860081402   -5524.441860081402   25142.309436253156  -31785.449188010600    1118.697891676042 
  410000   -5467.491148061592   -5467.491148061592   25285.228387165713  -31789.647100861133    1036.927565633832 
  411000   -5490.458060508132   -5490.458060508132   25224.169776983268  -31782.116638690943    1067.488801199542 
  412000   -5476.062754585775   -5476.062754585775   25183.544347733361  -31785.904322577549    1126.297220258415 
  413000   -5493.370292193616   -5493.370292193616   25194.824861982663  -31787.142705298262    1098.947551121981 
  414000   -5516.915878545511   -5516.915878545511   25212.068536602776  -31788.336825189417    1059.352410041131 
  415000   -5547.618555237241   -5547.618555237241   25132.646453058354  -31784.517260158049    1104.252251862454 
  416000   -5490.843250608246   -5490.843250608246   25235.378030696033  -31781.336736193414    1055.115454889138 
  417000   -5515.286765855530   -5515.286765855530   25177.245062154980  -31786.491130740844    1093.959302730335 
  418000   -5519.396583203990   -5519.396583203990   25139.167968495938  -31782.526511174863    1123.961959474937 
  419000   -5500.329812463850   -5500.329812463850   25210.167558567104  -31787.147337009210    1076.649965978261 
  420000   -5544.255237283069   -5544.255237283069   25183.740711809955  -31787.935392303010    1059.939443209986 
  421000   -5523.389368596949   -5523.389368596949   25219.124215978700  -31787.849671953703    1045.336087378051 
  422000   -5516.466555799710   -5516.466555799710   25186.751892673070  -31785.917886831008    1082.699438358233 
  423000   -5547.748003028377   -5547.748003028377   25182.170197862877  -31787.708448747740    1057.790247856487 
  424000   -5474.645954874082   -5474.645954874082   25265.412431866611  -31782.699314857113    1042.640928116419 
  425000   -5570.084466890050   -5570.084466890050   25131.072596989994  -31788.841675393025    1087.684611512975 
  426000   -5562.960967763698   -5562.960967763698   25075.894725545179  -31783.664141679692    1144.808448370813 
  427000   -5582.839879937859   -5582.839879937859   25058.514146186877  -31784.748051701805    1143.394025577070 
  428000   -5491.939640797220   -5491.939640797220   25197.464070131824  -31785.781835249123    1096.378124320076 
  429000   -5515.340286328908   -5515.340286328908   25158.842628362134  -31786.016912210296    1111.833997519253 
  430000   -5558.551127985331   -5558.551127985331   25146.410407439460  -31785.556786553498    1080.595251128703 
  431000   -5429.324084797692   -5429.324084797692   25298.991365162445  -31782.339422497724    1054.023972537588 
  432000   -5580.357276828287   -5580.357276828287   25079.266033146105  -31787.089456211590    1127.466146237195 
  433000   -5524.322317002214   -5524.322317002214   25209.984985416741  -31784.629525998997    1050.322223580041 
  434000   -5571.100277411464   -5571.100277411464   25130.977766276341  -31790.938382522680    1088.860338834876 
  435000   -5489.061993847641   -5489.061993847641   25215.169942295979  -31786.186189257449    1081.954253113831 
  436000   -5459.533005550977   -5459.533005550977   25277.014721474276  -31786.024449868502    1049.476722843250 
  437000   -5491.782620283964   -5491.782620283964   25142.282663385718  -31783.837639467201    1149.772355797517 
  438000   -5505.095255727578   -5505.095255727578   25229.510611573878  -31783.950125867861    1049.344258566403 
  439000   -5503.894335705951   -5503.894335705951   25232.417593227026  -31780.592160003438    1044.280231070462 
  440000   -5490.005391020379   -5490.005391020379   25259.016646938631  -31782.836466023600    1033.814428064587 
  441000   -5490.052508165674   -5490.052508165674   25200.840533548941  -31787.055755953690    1096.162714239071 
  442000   -5483.394175125657   -5483.394175125657   25254.822189937953  -31785.668719549023    1047.452354485411 
  443000   -5513.642196943256   -5513.642196943256   25125.523435269140  -31786.535514126441    1147.369881914045 
  444000   -5492.907320904535   -5492.907320904535   25232.008466868014  -31784.109498726091    1059.193710953539 
  445000   -5522.838851678171   -5522.838851678171   25203.765531512225  -31785.329317355310    1058.724934164912 
  446000   -5472.363119867696   -5472.363119867696   25235.724521269589  -31784.407169598868    1076.319528461580 
  447000   -5540.381655076777   -5540.381655076777   25160.454842724499  -31785.286695583283    1084.450197782003 
  448000   -5494.622220239748   -5494.622220239748   25213.851311981627  -31784.924275365869    1076.450743144494 
  449000   -5474.046731188504   -5474.046731188504   25121.144768573136  -31780.739066822298    1185.547567060659 
  450000   -5505.565646824623   -5505.565646824623   25245.715038905946  -31786.473939640586    1035.193253910018 
  451000   -5541.746945775078   -5541.746945775078   25081.726004517543  -31787.248240374771    1163.775290082155 
  452000   -5540.257539539347   -5540.257539539347   25101.862294220347  -31786.977719768434    1144.857886008740 
  453000   -5495.752795009728   -5495.752795009728   25252.753088705518  -31787.512266223021    1039.006382507775 
  454000   -5563.554418306932   -5563.554418306932   25022.809490636930  -31783.458101893306    1197.094192949446 
  455000   -5612.911019088744   -5612.911019088744   25022.802773647352  -31789.317217071839    1153.603424335744 
  456000   -5598.461102793492   -5598.461102793492   25032.688071918121  -31791.124100602738    1159.974925891127 
  457000   -5472.752862249970   -5472.752862249970   25262.038332792516  -31785.549730065013    1050.758535022523 
  458000   -5562.442419765201   -5562.442419765201   25155.443676366067  -31785.301674199272    1067.415578068000 
  459000   -5534.317304553824   -5534.317304553824   25129.643565125949  -31784.660595145138    1120.699725465362 
  460000   -5568.100516822724   -5568.100516822724   25049.807944974309  -31785.066538956879    1167.158077159844 
  461000   -5481.224899130215   -5481.224899130215   25244.153740757050  -31784.611974965628    1059.233335078362 
  462000   -5500.615275013788   -5500.615275013788   25181.831863879292  -31784.183142076032    1101.736003182950 
  463000   -5554.287191244697   -5554.287191244697   25095.495490867386  -31787.382878072105    1137.600195960019 
  464000   -5597.650923396992   -5597.650923396992   25126.713207069504  -31790.384863910127    1066.020733443632 
  465000   -5560.897757921219   -5560.897757921219   25089.142331174156  -31786.824873845155    1136.784784749779 
  466000   -5506.011643108162   -5506.011643108162   25198.133075455145  -31782.032628674388    1077.887910111078 
  467000   -5511.299263507073   -5511.299263507073   25142.446776488989  -31784.530466086795    1130.784426090735 
  468000   -5544.326916914804   -5544.326916914804   25093.854447165399  -31787.576796133104    1149.395432052906 
  469000   -5571.206771293069   -5571.206771293069   25052.824577131905  -31783.715259779954    1159.683911354978 
  470000   -5547.885833562465   -5547.885833562465   25072.762791974164  -31788.929501193514    1168.280875656884 
  471000   -5507.235225252211   -5507.235225252211   25168.865989742626  -31791.117100608870    1115.015885614035 
  472000   -5469.488774918093   -5469.488774918093   25263.626397296433  -31785.003617285700    1051.888445071175 
  473000   -5536.249010423635   -5536.249010423635   25151.987745410606  -31784.288442691479    1096.051686857240 
  474000   -5525.722903571183   -5525.722903571183   25141.658036160174  -31785.422947629468    1118.042007898112 
  475000   -5572.476279883995   -5572.476279883995   25109.657293248139  -31789.777024286424    1107.643451154293 
  476000   -5550.313062883495   -5550.313062883495   25136.889225374187  -31786.466612757038    1099.264324499358 
  477000   -5472.203460316727   -5472.203460316727   25182.759936635841  -31784.705179458513    1129.741782505946 
  478000   -5446.392712349181   -5446.392712349181   25294.243530814914  -31787.576921146181    1046.940677982086 
  479000   -5519.045491814282   -5519.045491814282   25267.938489095362  -31788.829142903138    1001.845161993495 
  480000   -5513.286634596479   -5513.286634596479   25241.494879007252  -31785.227443482501    1030.445929878770 
  481000   -5502.251063486248   -5502.251063486248   25173.426016950463  -31781.907909761379    1106.230829324668 
  482000   -5573.833235117931   -5573.833235117931   25111.019599803847  -31786.744252818713    1101.891417896933 
  483000   -5519.934941081898   -5519.934941081898   25201.993825160294  -31787.511832615099    1065.583066372909 
  484000   -5514.603231179000   -5514.603231179000   25193.482094120915  -31783.342234392163    1075.256909092246 
  485000   -5514.757975795757   -5514.757975795757   25181.068857930666  -31783.293956638729    1087.467122912315 
  486000   -5459.559215554291   -5459.559215554291   25252.213198775971  -31785.351843440338    1073.579429110073 
  487000   -5553.874372812272   -5553.874372812272   25136.041610226679  -31781.814987498423    1091.899004459475 
  488000   -5490.516326332214   -5490.516326332214   25217.532678706368  -31789.923825479786    1081.874820441198 
  489000   -5471.251053205480   -5471.251053205480   25221.447564043712  -31788.718820717622    1096.020203468432 
  490000   -5467.198477328551   -5467.198477328551   25200.875843916932  -31784.044362987384    1115.970041741900 
  491000   -5452.276975873181   -5452.276975873181   25341.948284853006  -31785.956777575899     991.731516849715 
  492000   -5511.028635803301   -5511.028635803301   25231.258958012459  -31787.371363539311    1045.083769723549 
  493000   -5465.716818705449   -5465.716818705449   25238.301367917102  -31783.775511859829    1079.757325237278 
  494000   -5526.346477329917   -5526.346477329917   25139.159220574416  -31789.395557446082    1123.889859541745 
  495000   -5502.263241054359   -5502.263241054359   25177.919981336272  -31785.824991968238    1105.641769577607 
  496000   -5557.544203945563   -5557.544203945563   25114.807178583251  -31789.193627529003    1116.842245000188 
  497000   -5548.619408958875   -5548.619408958875   25117.261229369527  -31788.562491326753    1122.681852998346 
  498000   -5526.305866749317   -5526.305866749317   25156.924822713652  -31784.410920163780    1101.180230700811 
  499000   -5460.184075836132   -5460.184075836132   25230.805247832643  -31786.311274039177    1095.321950370396 
  500000   -5563.038518384230   -5563.038518384230   25082.638921610192  -31783.412431042154    1137.734991047733 
  501000   -5487.834843284101   -5487.834843284101   25235.836132283108  -31785.272419217545    1061.601443650332 
  502000   -5562.359870953347   -5562.359870953347   25145.927760574905  -31787.580031016354    1079.292399488098 
  503000   -5526.628486475805   -5526.628486475805   25132.667436748598  -31784.632365713260    1125.336442488859 
  504000   -5480.667382282390   -5480.667382282390   25237.591780498296  -31787.275781831951    1069.016619051261 
  505000   -5511.305204050459   -5511.305204050459   25124.211718958824  -31784.105402870813    1148.588479861526 
  506000   -5495.784416616338   -5495.784416616338   25233.406582080206  -31785.177327323505    1055.986328626961 
  507000   -5529.351326566812   -5529.351326566812   25198.634251411651  -31789.994746665725    1062.009168687265 
  508000   -5479.633583337069   -5479.633583337069   25274.194297398204  -31778.020066898862    1024.192186163591 
  509000   -5525.416963074353   -5525.416963074353   25161.116859429887  -31783.076695646014    1096.542873141769 
  510000   -5552.527772194488   -5552.527772194488   25139.319617356403  -31781.914527750749    1090.067138199860 
  511000   -5557.221949712941   -5557.221949712941   25128.658908164842  -31788.750407633001    1102.869549755224 
  512000   -5485.827562201299   -5485.827562201299   25218.092560213394  -31786.729162186206    1082.809039771509 
  513000   -5538.923905349369   -5538.923905349369   25197.337095385999  -31787.408366892112    1051.147366156740 
  514000   -5547.833728725174   -5547.833728725174   25123.194448672137  -31787.523769900723    1116.495592503409 
  515000   -5516.981386613686   -5516.981386613686   25174.751761831099  -31786.165986921627    1094.432838476839 
  516000   -5520.850439443406   -5520.850439443406   25177.113501232248  -31781.144783617852    1083.180842942194 
  517000   -5487.183700492646   -5487.183700492646   25230.594428777193  -31785.403364428326    1067.625235158486 
  518000   -5544.781155407713   -5544.781155407713   25154.465759279286  -31788.840944054089    1089.594029367092 
  519000   -5442.964313650667   -5442.964313650667   25295.222018913570  -31785.771490998985    1047.585158434749 
  520000   -5508.409039565828   -5508.409039565828   25213.385702643485  -31788.707308490331    1066.912566281014 
  521000   -5439.291515049128   -5439.291515049128   25199.043342674129  -31783.991532137061    1145.656674413801 
  522000   -5525.000977514908   -5525.000977514908   25219.966232768529  -31787.645118022814    1042.677907739379 
  523000   -5505.617135297656   -5505.617135297656   25195.081563976477  -31784.172872623840    1083.474173349710 
  524000   -5566.088700973869   -5566.088700973869   25149.934055757294  -31785.651807843806    1069.629051112644 
  525000   -5493.821723753776   -5493.821723753776   25117.171211410070  -31788.273622643406    1177.280687479556 
  526000   -5473.886126890189   -5473.886126890189   25207.541589962708  -31783.255696107859    1101.827979254961 
  527000   -5422.200304068501   -5422.200304068501   25273.333667158193  -31781.716291221950    1086.182319995258 
  528000   -5472.480401004461   -5472.480401004461   25236.826460816097  -31785.914644130477    1076.607782309914 
  529000   -5482.407021399897   -5482.407021399897   25248.716909913321  -31785.980221935890    1054.856290622672 
  530000   -5548.128102655086   -5548.128102655086   25165.833896288535  -31786.170032320260    1072.208033376640 
  531000   -5552.485902584693   -5552.485902584693   25040.764423921475  -31788.693972877725    1195.443646371556 
  532000   -5519.736917591297   -5519.736917591297   25170.765889313509  -31785.904855474320    1095.402048569514 
  533000   -5511.085738296657   -5511.085738296657   25165.360581980822  -31788.434032998153    1111.987712720672 
  534000   -5569.518763625794   -5569.518763625794   25081.557871215882  -31792.083922986010    1141.007288144333 
  535000   -5502.344661964951   -5502.344661964951   25268.860385483909  -31787.456913894170    1016.251866445315 
  536000   -5535.487214665329   -5535.487214665329   25069.307618572799  -31784.524268588444    1179.729435350313 
  537000   -5538.954995224361   -5538.954995224361   25171.090251958805  -31783.444567035669    1073.399319852496 
  538000   -5586.425651322381   -5586.425651322381   25027.637616878121  -31789.507141938037    1175.443873737537 
  539000   -5528.608673251954   -5528.608673251954   25196.612403665386  -31788.035608230864    1062.814531313521 
  540000   -5547.012782816411   -5547.012782816411   25117.892802240553  -31784.259743880582    1119.354158823619 
  541000   -5543.669827394180   -5543.669827394180   25089.329584513049  -31785.734540964473    1152.735129057242 
  542000   -5603.213967572141   -5603.213967572141   25166.161315826910  -31784.626221774506    1015.250938375459 
  543000   -5566.103532172805   -5566.103532172805   25093.954767750278  -31785.286713485049    1125.228413561960 
  544000   -5607.804612337179   -5607.804612337179   25014.459597274428  -31790.788618652678    1168.524409041074 
  545000   -5564.592651726165   -5564.592651726165   25093.947059637736  -31786.222186899231    1127.682475535330 
  546000   -5535.956672255856   -5535.956672255856   25139.001263522816  -31784.937542447042    1109.979606668371 
  547000   -5527.248963099970   -5527.248963099970   25241.961404877937  -31786.053795457177    1016.843427479266 
  548000   -5486.700506794019   -5486.700506794019   25202.638705194207  -31785.357221720271    1096.018009732041 
  549000   -5491.285510235735   -5491.285510235735   25209.601664980793  -31786.066376602299    1085.179201385773 
  550000   -5530.530329314810   -5530.530329314810   25182.877965711301  -31787.709426748435    1074.301131722327 
  551000   -5591.133857103436   -5591.133857103436   25125.443250288579  -31787.937121413881    1071.360014021863 
  552000   -5530.016703337540   -5530.016703337540   25157.578231655396  -31787.603196954165    1100.008261961233 
  553000   -5534.113326167724   -5534.113326167724   25152.907985269729  -31787.927006327467    1100.905694890014 
  554000   -5596.209680454464   -5596.209680454464   25083.154059064473  -31789.861727927582    1110.497988408645 
  555000   -5521.413588890024   -5521.413588890024   25151.282114117879  -31787.994052512146    1115.298349504240 
  556000   -5481.327136862885   -5481.327136862885   25167.656170734590  -31787.751807180975    1138.768499583503 
  557000   -5538.340660564572   -5538.340660564572   25087.890520400746  -31788.552024894590    1162.320843929277 
  558000   -5521.298748595276   -5521.298748595276   25110.040462932026  -31783.417839615191    1152.078628087892 
  559000   -5581.159307927330   -5581.159307927330   25072.003997141477  -31789.315120061568    1136.151814992764 
  560000   -5501.855198183690   -5501.855198183690   25173.881020081415  -31786.436492646983    1110.700274381879 
  561000   -5530.360172573186   -5530.360172573186   25137.516868883602  -31786.402466165800    1118.525424709009 
  562000   -5531.462093014772   -5531.462093014772   25093.299487552773  -31789.181091261555    1164.419510694013 
  563000   -5533.353530376033   -5533.353530376033   25174.055008502914  -31790.293728402739    1082.885189523788 
  564000   -5537.066622762162   -5537.066622762162   25143.291737646177  -31783.450651484454    1103.092291076116 
  565000   -5542.511528506955   -5542.511528506955   25137.078121578972  -31786.861235928711    1107.271585842786 
  566000   -5502.236400519370   -5502.236400519370   25191.238344373807  -31790.099258798960    1096.624513905785 
  567000   -5532.032096593884   -5532.032096593884   25209.619012039388  -31789.476494956300    1047.825386323030 
  568000   -5522.346450751906   -5522.346450751906   25196.823432225123  -31785.170996600838    1066.001113623809 
  569000   -5496.676280186035   -5496.676280186035   25181.320669111257  -31784.175966399827    1106.179017102537 
  570000   -5555.791804053872   -5555.791804053872   25057.080989150196  -31786.022075726760    1173.149282522692 
  571000   -5492.376621639192   -5492.376621639192   25245.700172342862  -31786.632113133095    1048.555319151038 
  572000   -5449.014218231216   -5449.014218231216   25245.192715849833  -31785.068384408860    1090.861450327812 
  573000   -5514.743018755096   -5514.743018755096   25194.094074258977  -31781.497231104273    1072.660138090201 
  574000   -5507.245755476917   -5507.245755476917   25203.076344534282  -31785.962475894332    1075.640375883134 
  575000   -5549.876333842247   -5549.876333842247   25168.206781316614  -31787.036971920086    1068.953856761225 
  576000   -5525.069984222409   -5525.069984222409   25170.630343571182  -31783.237749908727    1087.537422115136 
  577000   -5441.417801931300   -5441.417801931300   25291.189562724077  -31782.973766305244    1050.366401649864 
  578000   -5458.026615614894   -5458.026615614894   25273.614939154635  -31782.337394997678    1050.695840228151 
  579000   -5537.154727274876   -5537.154727274876   25118.899303657352  -31785.004770632087    1128.950739699857 
  580000   -5495.397646580659   -5495.397646580659   25207.757463192054  -31782.209837682982    1079.054727910268 
  581000   -5461.386668577830   -5461.386668577830   25306.326431569672  -31785.383721372982    1017.670621225478 
  582000   -5444.531167308767   -5444.531167308767   25240.711609599282  -31786.471170326171    1101.228393418118 
  583000   -5547.932833595296   -5547.932833595296   25145.421194743802  -31780.457153608746    1087.103125269650 
  584000   -5502.067466398403   -5502.067466398403   25197.816949929700  -31785.678318624872    1085.793902296770 
  585000   -5527.791217123831   -5527.791217123831   25176.043199009429  -31784.806080037171    1080.971663903913 
  586000   -5498.956073774501   -5498.956073774501   25213.943150410763  -31785.389522899914    1072.490298714647 
  587000   -5470.000086211992   -5470.000086211992   25247.240961076051  -31782.406961057466    1065.165913769419 
  588000   -5557.670472616781   -5557.670472616781   25125.291125103940  -31781.562256177189    1098.600658456471 
  589000   -5503.133643242389   -5503.133643242389   25273.483996977840  -31789.089333161774    1012.471692941544 
  590000   -5458.808395593693   -5458.808395593693   25282.634064297712  -31788.244857083435    1046.802397192031 
  591000   -5554.153905421583   -5554.153905421583   25162.530743187886  -31784.825274423903    1068.140625814434 
  592000   -5479.719088539492   -5479.719088539492   25232.829982714222  -31789.536702990605    1076.987631736892 
  593000   -5527.584527099269   -5527.584527099269   25185.248574288740  -31788.369505949824    1075.536404561813 
  594000   -5528.002974549519   -5528.002974549519   25158.133495909897  -31787.782104324346    1101.645633864931 
  595000   -5515.452306899806   -5515.452306899806   25153.039186835740  -31785.852261683463    1117.360767947915 
  596000   -5522.524334212754   -5522.524334212754   25181.354778522822  -31785.921682819022    1082.042570083447 
  597000   -5551.893740820822   -5551.893740820822   25198.576481037941  -31785.241484641338    1034.771262782572 
  598000   -5626.864456559593   -5626.864456559593   25015.595709384077  -31783.436110455976    1140.975944512304 
  599000   -5554.638842942102   -5554.638842942102   25099.630690211437  -31783.942077687621    1129.672544534078 
  600000   -5558.249018602532   -5558.249018602532   25005.364977530076  -31782.123091592839    1218.509095460229 
  601000   -5587.745949132604   -5587.745949132604   25079.170450617956  -31784.963153355355    1118.046753604794 
  602000   -5455.983169611653   -5455.983169611653   25247.023989510955  -31786.878142527756    1083.870983405150 
  603000   -5542.128367137600   -5542.128367137600   25180.364344943831  -31787.708051209374    1065.215339127939 
  604000   -5447.580383202727   -5447.580383202727   25280.397068482715  -31786.575213638444    1058.597761953001 
  605000   -5560.024398747941   -5560.024398747941   25114.575085220640  -31788.009563792890    1113.410079824306 
  606000   -5493.736737668103   -5493.736737668103   25264.862370710216  -31787.990036527488    1029.390928149167 
  607000   -5501.536884157958   -5501.536884157958   25225.296798581840  -31783.665956154298    1056.832273414503 
  608000   -5475.866418027515   -5475.866418027515   25251.213545558858  -31787.161373462211    1060.081409875840 
  609000   -5423.830799108986   -5423.830799108986   25275.323006615436  -31782.974237870967    1083.820432146543 
  610000   -5508.764347984117   -5508.764347984117   25164.406197148011  -31786.994405726313    1113.823860594185 
  611000   -5554.819159502091   -5554.819159502091   25135.424194310726  -31790.557109128873    1100.313755316056 
  612000   -5504.745702197612   -5504.745702197612   25192.263191967748  -31788.048533614794    1091.039639449435 
  613000   -5483.311974641976   -5483.311974641976   25239.990453339829  -31785.554035611021    1062.251607629215 
  614000   -5573.064283215488   -5573.064283215488   25105.076745115024  -31786.175640140184    1108.034611809675 
  615000   -5501.828059589472   -5501.828059589472   25211.977775932781  -31781.590381508497    1067.784545986242 
  616000   -5538.193714839741   -5538.193714839741   25132.156376222050  -31786.812342363832    1116.462251302040 
  617000   -5538.073977411757   -5538.073977411757   25143.991826152273  -31786.931940663391    1104.866137099358 
  618000   -5509.874394748469   -5509.874394748469   25147.024520485149  -31782.185507158869    1125.286591925250 
  619000   -5465.203640370208   -5465.203640370208   25281.939072819267  -31786.180492356922    1039.037779167450 
  620000   -5477.396366495705   -5477.396366495705   25272.900272652456  -31784.158383918082    1033.861744769921 
  621000   -5505.326843946819   -5505.326843946819   25169.449703619637  -31783.352477153279    1108.575929586828 
  622000   -5582.840369800149   -5582.840369800149   25078.022333888654  -31789.437276060780    1128.574572371981 
  623000   -5490.043649209932   -5490.043649209932   25233.634334548471  -31783.625922604962    1059.947938846559 
  624000   -5470.496761052786   -5470.496761052786   25239.400054988597  -31785.188436914428    1075.291620873045 
  625000   -5567.616205254944   -5567.616205254944   25168.745186476219  -31786.106548770786    1049.745157039622 
  626000   -5513.756428127770   -5513.756428127770   25200.404232610807  -31787.633194732418    1073.472533993839 
  627000   -5524.422772983660   -5524.422772983660   25161.288567321986  -31784.618129900151    1098.906789594507 
  628000   -5457.913296382849   -5457.913296382849   25233.007070440810  -31786.869374353129    1095.949007529467 
  629000   -5483.519606951253   -5483.519606951253   25234.521260781574  -31782.822708523752    1064.781840790928 
  630000   -5497.201433291957   -5497.201433291957   25176.169230864085  -31783.238740419762    1109.868076263723 
  631000   -5511.862787481532   -5511.862787481532   25189.507889967685  -31788.916710220350    1087.546032771134 
  632000   -5532.300513805800   -5532.300513805800   25099.538940179351  -31785.798795082097    1153.959341096945 
  633000   -5526.009738576260   -5526.009738576260   25182.881688969203  -31787.814208524218    1078.922780978751 
  634000   -5509.070763670810   -5509.070763670810   25242.160168627597  -31785.189953335012    1033.959021036604 
  635000   -5522.316750623191   -5522.316750623191   25160.580976916630  -31783.748843366528    1100.851115826704 
  636000   -5579.947675449224   -5579.947675449224   25081.857508883677  -31783.097022798825    1121.291838465921 
  637000   -5490.918937014754   -5490.918937014754   25201.688909015033  -31783.921046433643    1091.313200403857 
  638000   -5537.394242125243   -5537.394242125243   25115.040042204662  -31785.153862647159    1132.719578317249 
  639000   -5562.792848877074   -5562.792848877074   25165.129885954280  -31784.811667915317    1056.888933083966 
  640000   -5550.819730225940   -5550.819730225940   25130.236534276792  -31783.527861757302    1102.471597254575 
  641000   -5532.730506906944   -5532.730506906944   25155.024526088444  -31785.528320474092    1097.773287478703 
  642000   -5586.331441852661   -5586.331441852661   25036.428014714405  -31782.563819843610    1159.804363276544 
  643000   -5584.810099262279   -5584.810099262279   25094.430781176710  -31785.589366030243    1106.348485591248 
  644000   -5523.490973489985   -5523.490973489985   25180.720156257717  -31782.111534311160    1077.900404563457 
  645000   -5480.916110500199   -5480.916110500199   25249.944412692174  -31785.915762272572    1055.055239080199 
  646000   -5450.216942364965   -5450.216942364965   25244.176283761088  -31785.707384829137    1091.314158703088 
  647000   -5524.772320940432   -5524.772320940432   25202.882807856935  -31786.750585835867    1059.095457038495 
  648000   -5498.664167179904   -5498.664167179904   25210.319365767944  -31787.786683694245    1078.803150746396 
  649000   -5498.449624233028   -5498.449624233028   25195.517190699517  -31784.764577206264    1090.797762273716 
  650000   -5473.205668876682   -5473.205668876682   25200.237074729430  -31787.352199522535    1113.909455916425 
  651000   -5499.730992927376   -5499.730992927376   25258.222974926706  -31780.302893073538    1022.348925219457 
  652000   -5452.422386436625   -5452.422386436625   25248.039077235233  -31782.696498288922    1082.235034617069 
  653000   -5452.417335540376   -5452.417335540376   25272.421365602408  -31786.292049861029    1061.453348718249 
  654000   -5509.817839793031   -5509.817839793031   25222.688481561185  -31788.883931032509    1056.377609678295 
[...]
 4838000   -5505.285472618845   -5505.285472618845   25040.781633264654  -31569.798906242249    1023.731800358751 
 4839000   -5550.260339572207   -5550.260339572207   24804.162018939740  -31567.110301697478    1212.687943185528 
 4840000   -5576.471646380123   -5576.471646380123   24835.465878032461  -31563.467257383101    1151.529732970513 
 4841000   -5542.403046891610   -5542.403046891610   24963.740028460430  -31567.114497166487    1060.971421814446 
 4842000   -5511.933583595775   -5511.933583595775   24986.711234250135  -31567.428250739977    1068.783432894067 
 4843000   -5491.409412484558   -5491.409412484558   25010.647004577320  -31566.092688606172    1064.036271544291 
 4844000   -5506.857712817913   -5506.857712817913   24987.005006145722  -31569.890385400617    1076.027666436983 
 4845000   -5517.538855129176   -5517.538855129176   24985.261075622009  -31567.981425832477    1065.181495081292 
 4846000   -5548.387524308288   -5548.387524308288   24909.979654139031  -31564.190391548982    1105.823213101661 
 4847000   -5465.357763524451   -5465.357763524451   25015.059640787957  -31566.976092343732    1086.558688031325 
 4848000   -5514.843982807717   -5514.843982807717   24948.863104345884  -31566.444280916432    1102.737193762831 
 4849000   -5495.497921505954   -5495.497921505954   25043.443453305095  -31568.392253890892    1029.450879079845 
 4850000   -5559.478498100223   -5559.478498100223   24879.018456737584  -31571.388525156784    1132.891570318980 
 4851000   -5514.016086409625   -5514.016086409625   24976.424513137259  -31567.495549202253    1077.054949655366 
 4852000   -5533.969568268807   -5533.969568268807   24970.581392650107  -31565.516841041423    1060.965880122515 
 4853000   -5526.388119876814   -5526.388119876814   24924.203097645455  -31569.467073858385    1118.875856336115 
 4854000   -5478.583439894239   -5478.583439894239   24981.864216649090  -31564.308795870191    1103.861139326864 
 4855000   -5595.703177482625   -5595.703177482625   24852.493347880736  -31570.172191230828    1121.975665867466 
 4856000   -5517.745296737758   -5517.745296737758   25000.346626392271  -31571.561683872362    1053.469760742337 
 4857000   -5518.421908732438   -5518.421908732438   24953.964828846343  -31569.881483660407    1097.494746081620 
 4858000   -5569.167560460133   -5569.167560460133   24981.698688058652  -31569.168083085733    1018.301834566952 
 4859000   -5506.439293907075   -5506.439293907075   25040.195228847067  -31568.968088352878    1022.333565598734 
 4860000   -5517.175598009093   -5517.175598009093   24876.449853450562  -31564.791970875074    1171.166519415420 
 4861000   -5577.335036935630   -5577.335036935630   24859.184764850688  -31568.453041866596    1131.933240080276 
 4862000   -5497.700375675457   -5497.700375675457   24948.088283689729  -31565.218837779743    1119.430178414556 
 4863000   -5546.319031909268   -5546.319031909268   24932.447358346933  -31563.879924208130    1085.113533951925 
 4864000   -5564.533295714646   -5564.533295714646   24944.546185624804  -31567.417717267417    1058.338235927965 
 4865000   -5536.686128722638   -5536.686128722638   24959.044861463346  -31566.686830855575    1070.955840669593 
 4866000   -5464.995116350365   -5464.995116350365   25027.402497857282  -31564.865196744526    1072.467582536883 
 4867000   -5481.942961639863   -5481.942961639863   25025.582968952316  -31562.959868066046    1055.433937473870 
 4868000   -5493.758901399175   -5493.758901399175   25065.598455879746  -31564.172357011084    1004.814999732166 
 4869000   -5475.714039686398   -5475.714039686398   25002.673397890183  -31565.620635191364    1087.233197614784 
 4870000   -5498.281821694862   -5498.281821694862   24995.760501280027  -31564.059875713447    1070.017552738562 
 4871000   -5526.431978183373   -5526.431978183373   24951.050514439961  -31566.977911534555    1089.495418911223 
 4872000   -5506.056520268794   -5506.056520268794   24954.754467736857  -31564.943626686072    1104.132638680423 
 4873000   -5575.602491199446   -5575.602491199446   24794.743696098711  -31572.825874526116    1202.479687227958 
 4874000   -5541.358220965089   -5541.358220965089   24906.649604885464  -31565.914840840505    1117.907014989955 
 4875000   -5525.953754273003   -5525.953754273003   24876.176994470377  -31565.600442888004    1163.469694144621 
 4876000   -5598.091325967467   -5598.091325967467   24896.596040211894  -31571.634490105116    1076.947123925754 
 4877000   -5460.164988889086   -5460.164988889086   25068.758475958828  -31564.877315295515    1035.953850447603 
 4878000   -5490.828256711524   -5490.828256711524   25116.514168113958  -31570.896378952773     963.553954127293 
 4879000   -5558.979313264321   -5558.979313264321   24927.297199162706  -31570.270713080812    1083.994200653788 
 4880000   -5492.300005255755   -5492.300005255755   25007.057385300715  -31570.439147060941    1071.081756504474 
 4881000   -5545.263050784848   -5545.263050784848   24945.943469211295  -31568.604135746606    1077.397615750465 
 4882000   -5558.189608073804   -5558.189608073804   24955.468498242797  -31570.161662024107    1056.503555707506 
 4883000   -5458.011144597771   -5458.011144597771   25039.935882272359  -31570.779451921768    1072.832425051642 
 4884000   -5455.204893439008   -5455.204893439008   25083.523696095581  -31566.409322190757    1027.680732656166 
 4885000   -5593.871593759512   -5593.871593759512   24861.663833043924  -31568.748759773676    1113.213332970238 
 4886000   -5538.440945900900   -5538.440945900900   24932.529186415486  -31568.013209319422    1097.043077003036 
 4887000   -5602.234186430800   -5602.234186430800   24800.182893668021  -31566.851467421013    1164.434387322194 
 4888000   -5550.930767993999   -5550.930767993999   24929.076429337518  -31568.617149730537    1088.609952399024 
 4889000   -5537.572490412877   -5537.572490412877   24987.379636499769  -31567.530055683299    1042.577928770654 
 4890000   -5523.321859626507   -5523.321859626507   24962.874326138313  -31569.545027072309    1083.348841307490 
 4891000   -5510.652668814899   -5510.652668814899   24931.889633097086  -31566.912543279399    1124.370241367413 
 4892000   -5535.678857133553   -5535.678857133553   24903.016285916801  -31561.963259897984    1123.268116847632 
 4893000   -5488.216597881852   -5488.216597881852   25040.311234816472  -31567.503738333056    1038.975905634727 
 4894000   -5491.069303948098   -5491.069303948098   24855.147923701697  -31563.818517295920    1217.601289646130 
 4895000   -5527.752307846633   -5527.752307846633   24922.363267649169  -31568.682297779822    1118.566722284017 
 4896000   -5520.864157478365   -5520.864157478365   24966.526807323393  -31567.357209101963    1079.966244300204 
 4897000   -5550.415011524754   -5550.415011524754   24944.851879515452  -31568.307312750880    1073.040421710677 
 4898000   -5461.680736914848   -5461.680736914848   25098.857717631778  -31566.404602533166    1005.866147986542 
 4899000   -5474.541577599510   -5474.541577599510   24973.229297507263  -31570.345184505648    1122.574309398879 
 4900000   -5574.638639684646   -5574.638639684646   24928.921534604196  -31568.144090888836    1064.583916599995 
 4901000   -5514.909484675649   -5514.909484675649   25022.684872696631  -31567.384575624259    1029.790218251980 
 4902000   -5539.186483584508   -5539.186483584508   24951.884239287319  -31566.728101179917    1075.657378308090 
 4903000   -5487.542044694885   -5487.542044694885   25029.980737792255  -31569.583708900092    1052.060926412950 
 4904000   -5588.285597550443   -5588.285597550443   24842.658447143342  -31565.258191741181    1134.314147047395 
 4905000   -5487.338621935505   -5487.338621935505   24970.872293897872  -31569.184265312422    1110.973349479050 
 4906000   -5475.396643894521   -5475.396643894521   24989.476088414260  -31562.798115158028    1097.925382849248 
 4907000   -5482.723508900115   -5482.723508900115   24960.186267573656  -31564.650728425393    1121.740951951617 
 4908000   -5554.953259345522   -5554.953259345522   24964.506374500415  -31570.649824031403    1051.190190185466 
 4909000   -5512.922299526734   -5512.922299526734   24971.826318062569  -31569.674105489903    1084.925487900601 
 4910000   -5477.662898689676   -5477.662898689676   25030.235447698407  -31565.312894965053    1057.414548576972 
 4911000   -5569.631437862085   -5569.631437862085   24940.042767283623  -31566.377465943820    1056.703260798117 
 4912000   -5545.570710170599   -5545.570710170599   24872.634441246755  -31569.710385563583    1151.505234146231 
 4913000   -5551.139004806009   -5551.139004806009   24908.449820500733  -31566.623611788880    1107.034786482139 
 4914000   -5530.589831124405   -5530.589831124405   24851.301576445385  -31569.645896971284    1187.754489401492 
 4915000   -5472.917695993172   -5472.917695993172   25011.538913781496  -31561.897772638062    1077.441162863391 
 4916000   -5516.067149142396   -5516.067149142396   24985.762695873691  -31570.245415685535    1068.415570669444 
 4917000   -5470.851676026112   -5470.851676026112   24996.992472115176  -31568.181897603434    1100.337749462150 
 4918000   -5527.397945434644   -5527.397945434644   24970.989041704684  -31568.673787715015    1070.286800575685 
 4919000   -5451.476442117335   -5451.476442117335   25114.142029977142  -31566.933947616086    1001.315475521608 
 4920000   -5505.588141313554   -5505.588141313554   24956.399182042318  -31565.729624980664    1103.742301624793 
 4921000   -5481.255515563200   -5481.255515563200   24993.885717691097  -31565.448298467163    1090.307065212865 
 4922000   -5552.657347160690   -5552.657347160690   24930.270589968408  -31567.480707862866    1084.552770733773 
 4923000   -5500.940095983184   -5500.940095983184   24955.868663071949  -31563.152605602671    1106.343846547542 
 4924000   -5468.166041077398   -5468.166041077398   25063.921622976737  -31568.625258724656    1036.537594670522 
 4925000   -5570.045121163959   -5570.045121163959   24909.928430393255  -31566.202478674088    1086.228927116878 
 4926000   -5492.403872636001   -5492.403872636001   25013.953778499279  -31564.441707482569    1058.084056347286 
 4927000   -5570.926670882254   -5570.926670882254   24849.875883087843  -31569.011708935563    1148.209154965466 
 4928000   -5463.388218782227   -5463.388218782227   25011.727979185034  -31566.705753822633    1091.589555855371 
 4929000   -5565.997761006405   -5565.997761006405   24882.863167476935  -31568.849811857395    1119.988883374054 
 4930000   -5453.444682406498   -5453.444682406498   25038.295000584872  -31562.438559901391    1070.698876910025 
 4931000   -5471.762325136246   -5471.762325136246   25019.599592443214  -31566.201772517812    1074.839854938356 
 4932000   -5508.754150048600   -5508.754150048600   24972.607674621679  -31566.176051231301    1084.814226561024 
 4933000   -5519.182829293022   -5519.182829293022   24976.642991096258  -31566.680489009064    1070.854668619789 
 4934000   -5491.274754287660   -5491.274754287660   24970.146985622632  -31570.387990344236    1108.966250433940 
 4935000   -5541.065929787190   -5541.065929787190   24922.542242303440  -31562.323424314203    1098.715252223571 
 4936000   -5522.793830409952   -5522.793830409952   24948.080668117436  -31569.025513227825    1098.151014700439 
 4937000   -5499.314390369873   -5499.314390369873   24954.094817025529  -31566.781209146215    1113.372001750812 
 4938000   -5499.869716963247   -5499.869716963247   24964.593905103582  -31570.736057705271    1106.272435638438 
 4939000   -5523.389763898846   -5523.389763898846   24967.859503314517  -31570.036474987304    1078.787207773943 
 4940000   -5503.960190320595   -5503.960190320595   24937.831978226961  -31567.231614773049    1125.439446225499 
 4941000   -5530.667778298790   -5530.667778298790   24951.684957976086  -31566.167173355356    1083.814437080481 
 4942000   -5524.789080522034   -5524.789080522034   24970.578034811166  -31569.727512783240    1074.360397450041 
 4943000   -5481.868962780009   -5481.868962780009   24962.328215254871  -31567.123007263068    1122.925829228191 
 4944000   -5526.772192973433   -5526.772192973433   24914.773590100474  -31570.623442224860    1129.077659150955 
 4945000   -5520.720795417776   -5520.720795417776   24936.816442607542  -31569.113171344681    1111.575933319364 
 4946000   -5517.586764171567   -5517.586764171567   24931.981709750315  -31571.281018536312    1121.712544614434 
 4947000   -5492.137723204582   -5492.137723204582   24989.683358319016  -31567.104337896060    1085.283256372461 
 4948000   -5512.489771223121   -5512.489771223121   24927.428679375531  -31568.565405454610    1128.646954855955 
 4949000   -5513.560585933512   -5513.560585933512   24949.047194827694  -31560.251445031296    1097.643664270095 
 4950000   -5449.584507400854   -5449.584507400854   25067.199416254003  -31565.474954446021    1048.691030791160 
 4951000   -5518.729750114831   -5518.729750114831   24960.232949800684  -31564.438624850958    1085.475924935445 
 4952000   -5583.487631803535   -5583.487631803535   24865.681380713049  -31568.433922089815    1119.264909573230 
 4953000   -5489.294767916293   -5489.294767916293   25003.091897424900  -31566.943061334143    1074.556395992947 
 4954000   -5548.528139371581   -5548.528139371581   24942.448234491843  -31567.695130264412    1076.718756400987 
 4955000   -5526.150676773294   -5526.150676773294   24936.120161341416  -31565.159921729883    1102.889083615172 
 4956000   -5482.604238073403   -5482.604238073403   25074.802688749420  -31564.618201050656    1007.211274227835 
 4957000   -5490.680322657667   -5490.680322657667   25069.480876675938  -31564.444776568504    1004.283577234903 
 4958000   -5559.624748006190   -5559.624748006190   24865.749095120587  -31569.892574490372    1144.518731363596 
 4959000   -5545.374454531124   -5545.374454531124   24902.633095625904  -31567.848142234259    1119.840592077233 
 4960000   -5489.325384135645   -5489.325384135645   25016.923421635329  -31562.400465436553    1056.151659665572 
 4961000   -5518.018087455024   -5518.018087455024   24971.380666155826  -31568.951340907144    1079.552587296288 
 4962000   -5548.728488256824   -5548.728488256824   24943.757270992763  -31565.985003985163    1073.499244735577 
 4963000   -5533.512506484913   -5533.512506484913   24933.918304990941  -31569.490617406242    1102.059805930387 
 4964000   -5564.818099984568   -5564.818099984568   24924.692949922879  -31563.957850806193    1074.446800898748 
 4965000   -5505.363228380349   -5505.363228380349   24947.971128557961  -31565.590455541966    1112.256098603655 
 4966000   -5528.500654882500   -5528.500654882500   24963.358674309005  -31567.170331944966    1075.311002753461 
 4967000   -5505.430466301594   -5505.430466301594   25023.284107873573  -31568.927345502132    1040.212771326967 
 4968000   -5535.934705205800   -5535.934705205800   24997.053395617186  -31566.769398023091    1033.781297200108 
 4969000   -5483.808311250727   -5483.808311250727   25069.121821912559  -31567.098092457407    1014.167959294123 
 4970000   -5512.014398523159   -5512.014398523159   24941.766680599903  -31569.376476795198    1115.595397672135 
 4971000   -5547.163776569745   -5547.163776569745   24949.871640646423  -31571.439112979831    1074.403695763659 
 4972000   -5575.395896319704   -5575.395896319704   24828.432159882341  -31566.671405093384    1162.843348891339 
 4973000   -5488.734057976148   -5488.734057976148   25043.005922202603  -31565.831747796965    1034.091767618213 
 4974000   -5536.402980996110   -5536.402980996110   24943.868593024468  -31569.294709394107    1089.023135373531 
 4975000   -5552.030974099216   -5552.030974099216   24980.233620735460  -31565.830451659564    1033.565856824887 
 4976000   -5509.818106289575   -5509.818106289575   25040.505854571580  -31562.048038084155    1011.724077222999 
 4977000   -5497.840035189980   -5497.840035189980   24978.337898697042  -31563.228229922108    1087.050296035083 
 4978000   -5517.043165537169   -5517.043165537169   24898.826242817016  -31561.759569636473    1145.890161282289 
 4979000   -5599.323431659344   -5599.323431659344   24796.997055438183  -31569.182606272516    1172.862119174984 
 4980000   -5538.653074635738   -5538.653074635738   24930.444640985952  -31568.456596289896    1099.358880668204 
 4981000   -5498.054998547606   -5498.054998547606   24952.402359575091  -31566.326979531699    1115.869621409006 
 4982000   -5585.262958227479   -5585.262958227479   24835.699672273706  -31568.737326462728    1147.774695961543 
 4983000   -5517.108177987480   -5517.108177987480   24920.336525838375  -31566.720908517444    1129.276204691593 
 4984000   -5565.085002173491   -5565.085002173491   24893.472815536559  -31571.076536971694    1112.518719261640 
 4985000   -5457.805033377452   -5457.805033377452   24970.390628445704  -31564.555025387290    1136.359363564136 
 4986000   -5523.634134377633   -5523.634134377633   24962.265612279221  -31564.803939595342    1078.904192938493 
 4987000   -5586.610273429822   -5586.610273429822   24853.400815788264  -31570.057340092888    1130.046250874804 
 4988000   -5527.992472882011   -5527.992472882011   24989.909518193290  -31568.128556984717    1050.226565909416 
 4989000   -5483.521869862918   -5483.521869862918   25018.779549820152  -31569.283844042682    1066.982424359618 
 4990000   -5472.304580873337   -5472.304580873337   24994.704547542249  -31563.111777322774    1096.102648907191 
 4991000   -5522.818968521224   -5522.818968521224   24953.626993683123  -31569.563842429550    1093.117880225200 
 4992000   -5529.884630293258   -5529.884630293258   24993.506923874091  -31567.344981320166    1043.953427152819 
 4993000   -5510.066012308325   -5510.066012308325   24997.845041612170  -31569.305101584574    1061.394047664078 
 4994000   -5486.047200739791   -5486.047200739791   24899.651899112519  -31565.307414273280    1179.608314420970 
 4995000   -5495.375448563194   -5495.375448563194   25017.375287298852  -31566.823883540361    1054.073147678312 
 4996000   -5507.671363058176   -5507.671363058176   24958.171983083623  -31569.508680483726    1103.665334341929 
 4997000   -5564.175331379865   -5564.175331379865   24889.671775889328  -31568.403590541595    1114.556483272398 
 4998000   -5486.087587419534   -5486.087587419534   24964.075983013121  -31567.388495287203    1117.224924854554 
 4999000   -5486.108212900112   -5486.108212900112   24984.285747698337  -31566.141433833644    1095.747473235194 
 5000000   -5531.266479679332   -5531.266479679332   24992.503740434531  -31564.595600057608    1040.825379943750 
Loop time of 29.7906 on 8 procs for 5001 steps with 1503 atoms

Performance: 14.504 ns/day, 1.655 hours/ns, 167.872 timesteps/s
99.0% CPU use with 8 MPI tasks x 1 OpenMP threads

MPI task timing breakdown:
Section |  min time  |  avg time  |  max time  |%varavg| %total
---------------------------------------------------------------
Pair    | 0          | 0          | 0          |   0.0 |  0.00
Bond    | 0          | 0          | 0          |   0.0 |  0.00
Kspace  | 0          | 0          | 0          |   0.0 |  0.00
Neigh   | 0          | 0          | 0          |   0.0 |  0.00
Comm    | 0          | 0          | 0          |   0.0 |  0.00
Output  | 0          | 0          | 0          |   0.0 |  0.00
Modify  | 0          | 0          | 0          |   0.0 |  0.00
Other   |            | 29.79      |            |       |100.00

Nlocal:    187.875 ave 200 max 181 min
Histogram: 1 1 2 1 1 1 0 0 0 1
Nghost:    4582.5 ave 4662 max 4499 min
Histogram: 1 2 0 1 0 0 0 2 1 1
Neighs:    67127.9 ave 73006 max 64430 min
Histogram: 3 1 1 0 1 1 0 0 0 1

Total # of neighbors = 537023
Ave neighs/atom = 357.301
Ave special neighs/atom = 2
Neighbor list builds = 0
Dangerous builds = 0
Total wall time: 0:01:29
