LAMMPS (3 Mar 2020)
  using 1 OpenMP thread(s) per MPI task
Reading data file ...
  orthogonal box = (0 0 0) to (24 24 24)
  2 by 2 by 2 MPI processor grid
  reading atoms ...
  1503 atoms
  scanning bonds ...
  2 = max bonds/atom
  scanning angles ...
  1 = max angles/atom
  reading bonds ...
  1002 bonds
  reading angles ...
  501 angles
Finding 1-2 1-3 1-4 neighbors ...
  special bond factors lj:   0          0          0         
  special bond factors coul: 0          0          0         
  2 = max # of 1-2 neighbors
  1 = max # of 1-3 neighbors
  1 = max # of 1-4 neighbors
  2 = max # of special neighbors
  special bonds CPU = 0.00101695 secs
  read_data CPU = 0.00961862 secs
Setting atom values ...
  1 settings made for charge
Setting atom values ...
  2 settings made for charge
WARNING: Using 'neigh_modify every 1 delay 0 check yes' setting during minimization (src/min.cpp:190)
PPPM initialization ...
  using 12-bit tables for long-range coulomb (src/kspace.cpp:332)
  G vector (1/distance) = 0.315108
  grid = 24 24 24
  stencil order = 5
  estimated absolute RMS force accuracy = 0.00171202
  estimated relative force accuracy = 5.1557e-06
  using double precision MKL FFT
  3d grid and FFT values/proc = 6859 1728
Neighbor list info ...
  update every 1 steps, delay 0 steps, check yes
  max neighbors/atom: 2000, page size: 100000
  master list distance cutoff = 12
  ghost atom cutoff = 12
  binsize = 6, bins = 4 4 4
  3 neighbor lists, perpetual/occasional/extra = 3 0 0
  (1) pair lj/cut/coul/long, perpetual, skip from (3)
      attributes: half, newton on
      pair build: skip
      stencil: none
      bin: none
  (2) pair lj/cut/coul/long/soft, perpetual, skip from (3)
      attributes: half, newton on
      pair build: skip
      stencil: none
      bin: none
  (3) neighbor class addition, perpetual
      attributes: half, newton on
      pair build: half/bin/newton
      stencil: half/bin/3d/newton
      bin: standard
Setting up cg style minimization ...
  Unit style    : real
  Current step  : 0
Per MPI rank memory allocation (min/avg/max) = 10.15 | 10.15 | 10.16 Mbytes
Step Temp E_pair E_mol TotEng Press 
       0            0   -239.44166   0.56510211   -238.87655     17973.46 
      54            0   -6583.3429    363.56413   -6219.7788   -5055.8129 
Loop time of 0.200364 on 8 procs for 54 steps with 1503 atoms

98.3% CPU use with 8 MPI tasks x 1 OpenMP threads

Minimization stats:
  Stopping criterion = energy tolerance
  Energy initial, next-to-last, final = 
        -238.876553175     -6213.84037839     -6219.77875547
  Force two-norm initial, final = 680.982 115.494
  Force max component initial, final = 40.0463 11.406
  Final line search alpha, max atom move = 0.00871694 0.0994255
  Iterations, force evaluations = 54 91

MPI task timing breakdown:
Section |  min time  |  avg time  |  max time  |%varavg| %total
---------------------------------------------------------------
Pair    | 0.13559    | 0.13708    | 0.14041    |   0.4 | 68.41
Bond    | 0.00047056 | 0.00050016 | 0.0005227  |   0.0 |  0.25
Kspace  | 0.043339   | 0.04667    | 0.04829    |   0.6 | 23.29
Neigh   | 0.0043449  | 0.004362   | 0.0043803  |   0.0 |  2.18
Comm    | 0.0092851  | 0.0095548  | 0.0097374  |   0.1 |  4.77
Output  | 0          | 0          | 0          |   0.0 |  0.00
Modify  | 0          | 0          | 0          |   0.0 |  0.00
Other   |            | 0.002198   |            |       |  1.10

Nlocal:    187.875 ave 192 max 186 min
Histogram: 1 3 0 3 0 0 0 0 0 1
Nghost:    4884.75 ave 4904 max 4874 min
Histogram: 2 0 2 2 0 0 1 0 0 1
Neighs:    72758.1 ave 75453 max 71395 min
Histogram: 1 2 1 2 1 0 0 0 0 1

Total # of neighbors = 582065
Ave neighs/atom = 387.269
Ave special neighs/atom = 2
Neighbor list builds = 3
Dangerous builds = 0
Finding SHAKE clusters ...
  0 = # of size 2 clusters
  0 = # of size 3 clusters
  0 = # of size 4 clusters
  501 = # of frozen angles
  find clusters CPU = 0.000290226 secs
PPPM initialization ...
  using 12-bit tables for long-range coulomb (src/kspace.cpp:332)
  G vector (1/distance) = 0.315108
  grid = 24 24 24
  stencil order = 5
  estimated absolute RMS force accuracy = 0.00171202
  estimated relative force accuracy = 5.1557e-06
  using double precision MKL FFT
  3d grid and FFT values/proc = 6859 1728
Neighbor list info ...
  update every 1 steps, delay 10 steps, check yes
  max neighbors/atom: 2000, page size: 100000
  master list distance cutoff = 12
  ghost atom cutoff = 12
  binsize = 6, bins = 4 4 4
  3 neighbor lists, perpetual/occasional/extra = 3 0 0
  (1) pair lj/cut/coul/long, perpetual, skip from (3)
      attributes: half, newton on
      pair build: skip
      stencil: none
      bin: none
  (2) pair lj/cut/coul/long/soft, perpetual, skip from (3)
      attributes: half, newton on
      pair build: skip
      stencil: none
      bin: none
  (3) neighbor class addition, perpetual
      attributes: half, newton on
      pair build: half/bin/newton
      stencil: half/bin/3d/newton
      bin: standard
Setting up Verlet run ...
  Unit style    : real
  Current step  : 54
  Time step     : 1
Per MPI rank memory allocation (min/avg/max) = 9.904 | 9.905 | 9.906 Mbytes
Step Temp TotEng PotEng E_bond E_angle E_dihed E_coul E_long E_vdwl 
      54     300.000000   -5688.205630   -6583.342888       0.000000       0.000000       0.000000   23976.894662  -31817.500062    1257.262512 
   10000     294.027980   -4654.588751   -5531.906752       0.000000       0.000000       0.000000   25190.714837  -31809.378133    1086.756545 
   20000     293.106453   -4630.490210   -5505.058565       0.000000       0.000000       0.000000   25180.531962  -31811.007642    1125.417116 
   30000     300.439561   -4596.294270   -5492.743088       0.000000       0.000000       0.000000   25194.335427  -31808.181481    1121.102966 
   40000     287.316857   -4666.095340   -5523.388752       0.000000       0.000000       0.000000   25245.991404  -31809.019885    1039.639729 
   50000     292.705903   -4695.450752   -5568.823949       0.000000       0.000000       0.000000   25184.424958  -31811.387065    1058.138158 
   60000     297.996366   -4667.330774   -5556.489608       0.000000       0.000000       0.000000   25146.491660  -31809.673241    1106.691973 
   70000     309.048445   -4558.354939   -5480.490865       0.000000       0.000000       0.000000   25307.701634  -31804.239820    1016.047320 
   80000     312.587945   -4613.233003   -5545.930057       0.000000       0.000000       0.000000   25154.499203  -31809.714465    1109.285206 
   90000     309.998949   -4581.450440   -5506.422470       0.000000       0.000000       0.000000   25301.359450  -31808.166526    1000.384606 
  100000     292.758476   -4627.443311   -5500.973377       0.000000       0.000000       0.000000   25318.672202  -31810.882726     991.237147 
  110000     289.808787   -4693.203644   -5557.932453       0.000000       0.000000       0.000000   25142.632897  -31812.623515    1112.058165 
  120000     298.236048   -4619.133529   -5509.007523       0.000000       0.000000       0.000000   25190.147415  -31809.202874    1110.047935 
  130000     305.256711   -4526.979429   -5437.801615       0.000000       0.000000       0.000000   25344.668288  -31806.662802    1024.192900 
  140000     307.975679   -4556.551472   -5475.486488       0.000000       0.000000       0.000000   25185.441761  -31808.798534    1147.870285 
  150000     287.229462   -4713.224741   -5570.257383       0.000000       0.000000       0.000000   25038.178750  -31810.276719    1201.840586 
  160000     303.466601   -4615.506104   -5520.986976       0.000000       0.000000       0.000000   25189.386268  -31809.630567    1099.257323 
  170000     306.470866   -4601.233111   -5515.678080       0.000000       0.000000       0.000000   25181.563116  -31803.389172    1106.147976 
  180000     298.961969   -4649.551571   -5541.591561       0.000000       0.000000       0.000000   25128.382757  -31810.647515    1140.673197 
  190000     309.428569   -4592.648133   -5515.918268       0.000000       0.000000       0.000000   25207.749033  -31811.414377    1087.747076 
  200000     297.158956   -4654.329516   -5540.989692       0.000000       0.000000       0.000000   25101.511482  -31808.111169    1165.609994 
  210000     297.664009   -4722.936800   -5611.103951       0.000000       0.000000       0.000000   25031.292313  -31809.804541    1167.408278 
  220000     303.550105   -4566.362803   -5472.092832       0.000000       0.000000       0.000000   25281.839341  -31808.762347    1054.830175 
  230000     306.391414   -4659.130690   -5573.338591       0.000000       0.000000       0.000000   25063.404705  -31810.561553    1173.818257 
  240000     299.748005   -4675.684280   -5570.069638       0.000000       0.000000       0.000000   25166.913205  -31810.570897    1073.588053 
  250000     293.678886   -4665.524907   -5541.801282       0.000000       0.000000       0.000000   25172.170206  -31806.971141    1092.999654 
  260000     300.079370   -4585.161353   -5480.535434       0.000000       0.000000       0.000000   25259.932353  -31808.199686    1067.731899 
  270000     308.342652   -4608.936604   -5528.966591       0.000000       0.000000       0.000000   25118.169075  -31807.938496    1160.802830 
  280000     304.409578   -4599.394131   -5507.688647       0.000000       0.000000       0.000000   25219.815716  -31806.112721    1078.608359 
  290000     299.123865   -4605.890980   -5498.414034       0.000000       0.000000       0.000000   25175.120205  -31804.498013    1130.963775 
  300000     285.538697   -4666.234369   -5518.222124       0.000000       0.000000       0.000000   25185.559032  -31807.673545    1103.892389 
  310000     302.498260   -4608.400715   -5510.992258       0.000000       0.000000       0.000000   25241.851662  -31808.464768    1055.620848 
  320000     289.741054   -4646.993871   -5511.520580       0.000000       0.000000       0.000000   25214.442829  -31812.007725    1086.044315 
  330000     294.833743   -4633.369138   -5513.091365       0.000000       0.000000       0.000000   25183.231562  -31809.943566    1113.620639 
  340000     304.194637   -4627.048105   -5534.701282       0.000000       0.000000       0.000000   25200.058599  -31811.560474    1076.800593 
  350000     299.043789   -4643.841745   -5536.125868       0.000000       0.000000       0.000000   25171.251588  -31806.745973    1099.368517 
  360000     296.078073   -4637.585876   -5521.020923       0.000000       0.000000       0.000000   25165.299585  -31806.136148    1119.815640 
  370000     305.023061   -4600.954199   -5511.079220       0.000000       0.000000       0.000000   25213.916815  -31811.409853    1086.413818 
  380000     292.622544   -4611.914163   -5485.038634       0.000000       0.000000       0.000000   25249.115446  -31807.946605    1073.792525 
  390000     301.476597   -4629.805250   -5529.348365       0.000000       0.000000       0.000000   25210.057580  -31812.644256    1073.238311 
  400000     298.703006   -4671.592867   -5562.860164       0.000000       0.000000       0.000000   25134.389400  -31812.596220    1115.346656 
  410000     296.453690   -4656.386594   -5540.942405       0.000000       0.000000       0.000000   25219.951338  -31811.048039    1050.154297 
  420000     285.299765   -4711.481568   -5562.756398       0.000000       0.000000       0.000000   25141.134865  -31810.356689    1106.465426 
  430000     296.531087   -4631.144165   -5515.930913       0.000000       0.000000       0.000000   25213.999118  -31807.026775    1077.096745 
  440000     303.233477   -4592.536638   -5497.321916       0.000000       0.000000       0.000000   25223.159610  -31808.084875    1087.603349 
  450000     295.021302   -4617.125570   -5497.407434       0.000000       0.000000       0.000000   25271.914851  -31808.007356    1038.685070 
  460000     299.099854   -4605.047729   -5497.499140       0.000000       0.000000       0.000000   25175.553908  -31807.329431    1134.276383 
  470000     301.375755   -4605.755327   -5504.997550       0.000000       0.000000       0.000000   25235.714113  -31808.954275    1068.242612 
  480000     287.682450   -4667.646106   -5526.030370       0.000000       0.000000       0.000000   25156.861011  -31808.343193    1125.451812 
  490000     315.025051   -4606.347374   -5546.316241       0.000000       0.000000       0.000000   25168.147497  -31806.928103    1092.464364 
  500000     300.582329   -4639.942809   -5536.817616       0.000000       0.000000       0.000000   25214.889132  -31807.638390    1055.931643 
  510000     287.397664   -4666.501307   -5524.035829       0.000000       0.000000       0.000000   25293.248158  -31811.148817     993.864830 
  520000     305.619419   -4625.898636   -5537.803064       0.000000       0.000000       0.000000   25188.165241  -31806.951801    1080.983496 
  530000     299.201117   -4619.849947   -5512.603504       0.000000       0.000000       0.000000   25256.944830  -31811.012203    1041.463869 
  540000     300.548375   -4578.247721   -5475.021215       0.000000       0.000000       0.000000   25332.130029  -31810.594601    1003.443357 
  550000     294.824526   -4641.097224   -5520.791948       0.000000       0.000000       0.000000   25208.539898  -31808.800645    1079.468799 
  560000     297.060812   -4623.792580   -5510.159915       0.000000       0.000000       0.000000   25263.370046  -31811.480069    1037.950108 
  570000     294.703471   -4599.546927   -5478.880449       0.000000       0.000000       0.000000   25185.369244  -31807.958436    1143.708743 
  580000     299.374589   -4610.985069   -5504.256230       0.000000       0.000000       0.000000   25254.323865  -31807.892382    1049.312287 
  590000     309.703276   -4600.776304   -5524.866107       0.000000       0.000000       0.000000   25114.046818  -31806.950909    1168.037983 
  600000     316.659478   -4516.554009   -5461.399664       0.000000       0.000000       0.000000   25304.781015  -31808.701730    1042.521051 
  610000     294.260863   -4611.486141   -5489.499015       0.000000       0.000000       0.000000   25226.859904  -31807.590174    1091.231255 
  620000     307.660411   -4693.741150   -5611.735471       0.000000       0.000000       0.000000   25125.301086  -31809.764313    1072.727757 
  630000     303.524169   -4623.147263   -5528.799906       0.000000       0.000000       0.000000   25170.792940  -31810.573171    1110.980326 
  640000     310.341085   -4523.518153   -5449.511046       0.000000       0.000000       0.000000   25291.741093  -31808.039887    1066.787748 
  650000     307.486645   -4561.678263   -5479.154106       0.000000       0.000000       0.000000   25244.751210  -31808.582157    1084.676841 
  660000     304.319640   -4593.984846   -5502.011006       0.000000       0.000000       0.000000   25235.628200  -31811.485409    1073.846203 
  670000     295.837843   -4691.197576   -5573.915827       0.000000       0.000000       0.000000   25097.520334  -31809.963124    1138.526963 
  680000     300.630484   -4621.888341   -5518.906832       0.000000       0.000000       0.000000   25149.105941  -31812.202972    1144.190199 
  690000     286.861815   -4674.169941   -5530.105603       0.000000       0.000000       0.000000   25219.547293  -31807.835851    1058.182955 
  700000     298.556402   -4690.465707   -5581.295572       0.000000       0.000000       0.000000   25099.049344  -31812.175621    1131.830706 
  710000     308.869166   -4562.314181   -5483.915174       0.000000       0.000000       0.000000   25200.744501  -31806.481089    1121.821414 
  720000     297.672601   -4684.270463   -5572.463251       0.000000       0.000000       0.000000   25099.887828  -31806.928704    1134.577625 
  730000     308.019824   -4569.766764   -5488.833501       0.000000       0.000000       0.000000   25283.437040  -31810.833201    1038.562660 
  740000     290.502712   -4610.690073   -5477.489409       0.000000       0.000000       0.000000   25234.698487  -31810.743947    1098.556051 
  750000     306.946812   -4671.270695   -5587.135787       0.000000       0.000000       0.000000   25077.162958  -31808.489149    1144.190404 
  760000     290.799319   -4684.632438   -5552.316790       0.000000       0.000000       0.000000   25260.015801  -31811.760988     999.428397 
  770000     303.755546   -4628.466859   -5534.809882       0.000000       0.000000       0.000000   25189.444059  -31809.929589    1085.675648 
  780000     298.222671   -4658.110004   -5547.944084       0.000000       0.000000       0.000000   25198.175740  -31808.322089    1062.202266 
  790000     303.944513   -4657.450869   -5564.357730       0.000000       0.000000       0.000000   25118.902400  -31805.867335    1122.607205 
  800000     304.169505   -4618.382705   -5525.960896       0.000000       0.000000       0.000000   25171.366776  -31811.418732    1114.091060 
  810000     290.888866   -4674.096708   -5542.048247       0.000000       0.000000       0.000000   25156.289819  -31811.807946    1113.469879 
  820000     302.095980   -4633.978879   -5535.370105       0.000000       0.000000       0.000000   25152.613656  -31812.098060    1124.114299 
  830000     300.365575   -4607.851287   -5504.079344       0.000000       0.000000       0.000000   25214.700175  -31808.301670    1089.522151 
  840000     310.573334   -4607.826261   -5534.512138       0.000000       0.000000       0.000000   25189.718315  -31809.785449    1085.554997 
  850000     297.063232   -4594.783717   -5481.158274       0.000000       0.000000       0.000000   25261.608268  -31811.570828    1068.804286 
  860000     289.650924   -4722.323018   -5586.580797       0.000000       0.000000       0.000000   25179.991869  -31810.777102    1044.204436 
  870000     325.180661   -4533.676473   -5503.947558       0.000000       0.000000       0.000000   25255.585056  -31809.358144    1049.825529 
  880000     286.813524   -4703.084502   -5558.876072       0.000000       0.000000       0.000000   25177.019747  -31811.652071    1075.756252 
  890000     310.927565   -4632.214177   -5559.957005       0.000000       0.000000       0.000000   25138.459281  -31807.068374    1108.652088 
  900000     288.848390   -4655.011062   -5516.874246       0.000000       0.000000       0.000000   25171.050438  -31811.200389    1123.275704 
  910000     305.370702   -4587.148014   -5498.310324       0.000000       0.000000       0.000000   25247.736914  -31813.645320    1067.598083 
  920000     292.610804   -4654.963024   -5528.052466       0.000000       0.000000       0.000000   25175.249456  -31808.455638    1105.153715 
  930000     297.136788   -4585.844329   -5472.438360       0.000000       0.000000       0.000000   25331.377613  -31813.692118    1009.876145 
  940000     306.960011   -4631.305181   -5547.209656       0.000000       0.000000       0.000000   25239.407383  -31810.902506    1024.285467 
  950000     304.595235   -4542.933425   -5451.781904       0.000000       0.000000       0.000000   25405.378955  -31807.547956     950.387097 
  960000     303.530970   -4583.983692   -5489.656627       0.000000       0.000000       0.000000   25196.087915  -31804.374993    1118.630450 
  970000     289.190764   -4651.572498   -5514.457256       0.000000       0.000000       0.000000   25157.219165  -31808.284551    1136.608130 
  980000     297.378834   -4618.501897   -5505.818144       0.000000       0.000000       0.000000   25256.189092  -31811.495554    1049.488319 
  990000     316.992665   -4566.425233   -5512.265049       0.000000       0.000000       0.000000   25233.301548  -31813.193569    1067.626972 
 1000000     301.587420   -4604.343341   -5504.217128       0.000000       0.000000       0.000000   25203.055560  -31807.755096    1100.482408 
 1000054     298.520208   -4629.069453   -5519.791320       0.000000       0.000000       0.000000   25199.207598  -31807.447224    1088.448306 
Loop time of 1967.21 on 8 procs for 1000000 steps with 1503 atoms

Performance: 43.920 ns/day, 0.546 hours/ns, 508.334 timesteps/s
99.2% CPU use with 8 MPI tasks x 1 OpenMP threads

MPI task timing breakdown:
Section |  min time  |  avg time  |  max time  |%varavg| %total
---------------------------------------------------------------
Pair    | 979.47     | 987.77     | 1015.6     |  36.2 | 50.21
Bond    | 0.28506    | 0.31121    | 0.33601    |   2.9 |  0.02
Kspace  | 506.12     | 533.57     | 541.61     |  48.0 | 27.12
Neigh   | 70.508     | 70.546     | 70.574     |   0.2 |  3.59
Comm    | 90.183     | 91.729     | 94.278     |  11.6 |  4.66
Output  | 0.0042036  | 0.0075285  | 0.030615   |  10.1 |  0.00
Modify  | 267.6      | 276.46     | 278.16     |  20.2 | 14.05
Other   |            | 6.818      |            |       |  0.35

Nlocal:    187.875 ave 205 max 176 min
Histogram: 1 1 2 1 0 1 0 1 0 1
Nghost:    4585.12 ave 4703 max 4488 min
Histogram: 1 1 1 1 0 2 0 1 0 1
Neighs:    67810.6 ave 74222 max 62621 min
Histogram: 1 1 1 1 1 0 1 1 0 1

Total # of neighbors = 542485
Ave neighs/atom = 360.935
Ave special neighs/atom = 2
Neighbor list builds = 43422
Dangerous builds = 0
PPPM initialization ...
  using 12-bit tables for long-range coulomb (src/kspace.cpp:332)
  G vector (1/distance) = 0.313182
  grid = 24 24 24
  stencil order = 5
  estimated absolute RMS force accuracy = 0.00185547
  estimated relative force accuracy = 5.5877e-06
  using double precision MKL FFT
  3d grid and FFT values/proc = 6859 1728
Neighbor list info ...
  update every 1 steps, delay 10 steps, check yes
  max neighbors/atom: 2000, page size: 100000
  master list distance cutoff = 12
  ghost atom cutoff = 12
  binsize = 6, bins = 5 5 5
  3 neighbor lists, perpetual/occasional/extra = 3 0 0
  (1) pair lj/cut/coul/long, perpetual, skip from (3)
      attributes: half, newton on
      pair build: skip
      stencil: none
      bin: none
  (2) pair lj/cut/coul/long/soft, perpetual, skip from (3)
      attributes: half, newton on
      pair build: skip
      stencil: none
      bin: none
  (3) neighbor class addition, perpetual
      attributes: half, newton on
      pair build: half/bin/newton
      stencil: half/bin/3d/newton
      bin: standard
Setting up Verlet run ...
  Unit style    : real
  Current step  : 0
  Time step     : 1
Per MPI rank memory allocation (min/avg/max) = 10.91 | 10.91 | 10.91 Mbytes
Step Temp TotEng PotEng E_bond E_angle E_dihed E_coul E_long E_vdwl 
       0     298.520208   -4629.060569   -5519.782436       0.000000       0.000000       0.000000   25005.290356  -31613.521099    1088.448306 
   10000     299.294949   -4663.817615   -5556.851148       0.000000       0.000000       0.000000   24958.943674  -31615.354539    1099.559717 
   20000     293.391665   -4605.546750   -5480.966118       0.000000       0.000000       0.000000   25041.568969  -31613.288447    1090.753360 
   30000     286.472797   -4693.302001   -5548.076913       0.000000       0.000000       0.000000   25059.115737  -31618.766458    1011.573807 
   40000     289.170476   -4640.276276   -5503.100499       0.000000       0.000000       0.000000   25087.572316  -31616.399897    1025.727082 
   50000     303.135797   -4653.016686   -5557.510506       0.000000       0.000000       0.000000   24939.185470  -31614.098673    1117.402697 
   60000     304.500082   -4638.668047   -5547.232607       0.000000       0.000000       0.000000   24972.167229  -31613.988580    1094.588743 
   70000     302.650004   -4607.891564   -5510.935880       0.000000       0.000000       0.000000   25037.393100  -31613.675157    1065.346177 
   80000     311.493021   -4585.602709   -5515.032737       0.000000       0.000000       0.000000   24953.843416  -31614.856228    1145.980075 
   90000     293.679660   -4750.373012   -5626.651696       0.000000       0.000000       0.000000   24862.337961  -31616.597225    1127.607568 
  100000     300.195777   -4601.059118   -5496.780535       0.000000       0.000000       0.000000   25039.593315  -31613.920113    1077.546264 
  110000     306.308883   -4616.930711   -5530.892358       0.000000       0.000000       0.000000   24854.277823  -31614.892745    1229.722565 
  120000     303.135735   -4627.863948   -5532.357582       0.000000       0.000000       0.000000   24944.975231  -31614.579922    1137.247108 
  130000     304.508896   -4635.308947   -5543.899807       0.000000       0.000000       0.000000   24990.823202  -31617.013684    1082.290675 
  140000     306.131879   -4536.249273   -5449.682777       0.000000       0.000000       0.000000   25102.820243  -31611.777244    1059.274224 
  150000     298.209003   -4675.940193   -5565.733490       0.000000       0.000000       0.000000   24921.426826  -31615.141537    1127.981221 
  160000     298.345454   -4634.589908   -5524.790346       0.000000       0.000000       0.000000   24939.083004  -31611.547931    1147.674582 
  170000     293.902200   -4641.067055   -5518.009753       0.000000       0.000000       0.000000   24972.965657  -31611.702959    1120.727549 
  180000     303.379848   -4631.421028   -5536.643045       0.000000       0.000000       0.000000   24929.515656  -31612.392678    1146.233977 
  190000     313.408876   -4518.043976   -5453.190516       0.000000       0.000000       0.000000   25094.254339  -31614.062638    1066.617783 
  200000     295.736783   -4672.752204   -5555.168913       0.000000       0.000000       0.000000   24980.375889  -31616.757768    1081.212966 
  210000     287.610574   -4689.597499   -5547.767300       0.000000       0.000000       0.000000   24972.864074  -31616.534359    1095.902985 
  220000     292.157163   -4628.589555   -5500.325426       0.000000       0.000000       0.000000   25063.772138  -31614.715237    1050.617672 
  230000     295.718517   -4677.656690   -5560.018897       0.000000       0.000000       0.000000   24926.978447  -31617.713403    1130.716059 
  240000     295.473480   -4599.170011   -5480.801080       0.000000       0.000000       0.000000   24993.479147  -31616.827913    1142.547685 
  250000     302.832438   -4641.321569   -5544.910231       0.000000       0.000000       0.000000   24936.086753  -31616.609727    1135.612742 
  260000     301.197186   -4624.672471   -5523.381881       0.000000       0.000000       0.000000   25067.884869  -31615.036276    1023.769526 
  270000     298.432263   -4572.017413   -5462.476872       0.000000       0.000000       0.000000   25115.948462  -31617.530629    1039.105294 
  280000     294.344062   -4650.981625   -5529.242746       0.000000       0.000000       0.000000   24953.534014  -31616.569047    1133.792288 
  290000     299.114786   -4592.203038   -5484.699001       0.000000       0.000000       0.000000   25030.578862  -31614.609810    1099.331946 
  300000     280.313311   -4687.801186   -5524.197480       0.000000       0.000000       0.000000   24929.261329  -31615.921725    1162.462917 
  310000     294.366306   -4698.250230   -5576.577724       0.000000       0.000000       0.000000   24927.490681  -31620.051691    1115.983287 
  320000     311.437320   -4604.410193   -5533.674021       0.000000       0.000000       0.000000   24957.748108  -31613.913129    1122.491000 
  330000     298.355519   -4633.790692   -5524.021163       0.000000       0.000000       0.000000   24967.321089  -31614.839958    1123.497706 
  340000     306.119071   -4606.653655   -5520.048942       0.000000       0.000000       0.000000   25012.265865  -31612.748840    1080.434033 
  350000     294.129134   -4688.499085   -5566.118907       0.000000       0.000000       0.000000   24920.567965  -31617.594412    1130.907541 
  360000     297.541080   -4589.620840   -5477.421194       0.000000       0.000000       0.000000   25084.595577  -31612.830087    1050.813316 
  370000     305.083740   -4627.720577   -5538.026654       0.000000       0.000000       0.000000   24950.926207  -31615.079809    1126.126949 
  380000     304.934447   -4602.016993   -5511.877610       0.000000       0.000000       0.000000   24999.829787  -31616.230465    1104.523068 
  390000     293.717575   -4680.139395   -5556.531210       0.000000       0.000000       0.000000   24885.733150  -31612.220944    1169.956584 
  400000     297.160006   -4670.599684   -5557.262993       0.000000       0.000000       0.000000   24922.343029  -31614.129661    1134.523639 
  410000     300.969881   -4525.922971   -5423.954151       0.000000       0.000000       0.000000   25110.359327  -31615.968545    1081.655068 
  420000     297.848555   -4630.549388   -5519.267183       0.000000       0.000000       0.000000   25101.742595  -31616.514282     995.504504 
  430000     285.283655   -4694.267464   -5545.494226       0.000000       0.000000       0.000000   24951.750883  -31616.126894    1118.881786 
  440000     297.494771   -4647.325194   -5534.987372       0.000000       0.000000       0.000000   25040.230424  -31614.391038    1039.173243 
  450000     298.602067   -4625.123074   -5516.089193       0.000000       0.000000       0.000000   25028.143063  -31616.723363    1072.491107 
  460000     308.283805   -4592.722824   -5512.577224       0.000000       0.000000       0.000000   25005.576989  -31615.089512    1096.935300 
  470000     323.279852   -4573.108984   -5537.708450       0.000000       0.000000       0.000000   24993.180378  -31617.905836    1087.017008 
  480000     291.242917   -4594.885282   -5463.893236       0.000000       0.000000       0.000000   25024.724030  -31612.289389    1123.672122 
  490000     305.179356   -4627.147917   -5537.739291       0.000000       0.000000       0.000000   24963.042385  -31614.221723    1113.440046 
  500000     310.452024   -4564.821825   -5491.145738       0.000000       0.000000       0.000000   25083.817922  -31612.478605    1037.514946 
  510000     305.219794   -4579.245456   -5489.957486       0.000000       0.000000       0.000000   25003.617436  -31614.185866    1120.610944 
  520000     299.676700   -4650.814855   -5544.987454       0.000000       0.000000       0.000000   24979.069383  -31615.307105    1091.250269 
  530000     305.183609   -4558.294635   -5468.898697       0.000000       0.000000       0.000000   25076.549608  -31612.917245    1067.468940 
  540000     299.710134   -4642.852675   -5537.125034       0.000000       0.000000       0.000000   24955.471926  -31616.382538    1123.785578 
  550000     307.998078   -4534.534600   -5453.536449       0.000000       0.000000       0.000000   25085.898142  -31616.125003    1076.690412 
  560000     301.575137   -4561.857270   -5461.694408       0.000000       0.000000       0.000000   25089.500831  -31611.979512    1060.784273 
  570000     305.652872   -4523.068159   -5435.072404       0.000000       0.000000       0.000000   25160.743850  -31616.656839    1020.840586 
  580000     300.460505   -4685.036713   -5581.548020       0.000000       0.000000       0.000000   24948.428023  -31617.600775    1087.624732 
  590000     305.817604   -4635.850806   -5548.346579       0.000000       0.000000       0.000000   24883.870686  -31614.267319    1182.050055 
  600000     292.426213   -4668.965458   -5541.504121       0.000000       0.000000       0.000000   24997.704743  -31615.849721    1076.640857 
  610000     303.288334   -4597.397098   -5502.346057       0.000000       0.000000       0.000000   25024.843559  -31613.981757    1086.792141 
  620000     302.694815   -4596.523357   -5499.701381       0.000000       0.000000       0.000000   24992.822613  -31609.727706    1117.203712 
  630000     310.459793   -4627.633657   -5553.980749       0.000000       0.000000       0.000000   25001.748562  -31617.733151    1062.003839 
  640000     308.950851   -4579.627316   -5501.472042       0.000000       0.000000       0.000000   25006.682941  -31613.549811    1105.394828 
  650000     323.160258   -4583.162243   -5547.404867       0.000000       0.000000       0.000000   24934.141642  -31611.881864    1130.335355 
  660000     317.227011   -4524.778539   -5471.317595       0.000000       0.000000       0.000000   25061.519861  -31618.237770    1085.400314 
  670000     299.107195   -4629.287063   -5521.760377       0.000000       0.000000       0.000000   24994.867476  -31613.756869    1097.129016 
  680000     309.084445   -4627.338556   -5549.581899       0.000000       0.000000       0.000000   25027.581855  -31615.750774    1038.587019 
  690000     301.670572   -4634.595036   -5534.716932       0.000000       0.000000       0.000000   25008.551976  -31612.686792    1069.417884 
  700000     300.270681   -4507.651783   -5403.596698       0.000000       0.000000       0.000000   25177.571131  -31618.731405    1037.563577 
  710000     310.659243   -4626.222996   -5553.165206       0.000000       0.000000       0.000000   24955.770947  -31616.353193    1107.417040 
  720000     298.449143   -4682.352735   -5572.862560       0.000000       0.000000       0.000000   24957.171189  -31614.083928    1084.050179 
  730000     316.662834   -4610.851253   -5555.706923       0.000000       0.000000       0.000000   24897.874333  -31615.973250    1162.391993 
  740000     297.707379   -4671.587387   -5559.883944       0.000000       0.000000       0.000000   24935.482685  -31615.356854    1119.990225 
  750000     288.936926   -4710.412422   -5572.539781       0.000000       0.000000       0.000000   24956.349223  -31618.964586    1090.075582 
  760000     301.580025   -4694.460072   -5594.311796       0.000000       0.000000       0.000000   24876.369271  -31616.322773    1145.641706 
  770000     307.315760   -4653.433880   -5570.399836       0.000000       0.000000       0.000000   24947.534839  -31614.955647    1097.020972 
  780000     279.792004   -4683.964190   -5518.805013       0.000000       0.000000       0.000000   24939.548428  -31614.421146    1156.067704 
  790000     298.902577   -4716.968143   -5608.830921       0.000000       0.000000       0.000000   24823.870750  -31618.968755    1186.267084 
  800000     291.381568   -4699.918081   -5569.339742       0.000000       0.000000       0.000000   24947.424836  -31614.842405    1098.077827 
  810000     307.164095   -4570.009872   -5486.523291       0.000000       0.000000       0.000000   25005.665585  -31615.063877    1122.875001 
  820000     306.624472   -4615.906507   -5530.809805       0.000000       0.000000       0.000000   24989.791575  -31617.720243    1097.118864 
  830000     290.989389   -4682.000967   -5550.252448       0.000000       0.000000       0.000000   24953.379122  -31614.714092    1111.082522 
  840000     302.223401   -4629.030574   -5530.801995       0.000000       0.000000       0.000000   24941.390657  -31612.964232    1140.771580 
  850000     294.707719   -4638.371514   -5517.717714       0.000000       0.000000       0.000000   24993.807951  -31613.250083    1101.724419 
  860000     289.223214   -4637.572525   -5500.554108       0.000000       0.000000       0.000000   24954.576627  -31612.817640    1157.686905 
  870000     299.114757   -4684.891593   -5577.387469       0.000000       0.000000       0.000000   24944.001799  -31616.907221    1095.517953 
  880000     304.433036   -4603.047022   -5511.411531       0.000000       0.000000       0.000000   25023.826021  -31612.544470    1077.306918 
  890000     293.286323   -4690.312836   -5565.417886       0.000000       0.000000       0.000000   24856.013316  -31616.818295    1195.387093 
  900000     284.858347   -4591.813806   -5441.771538       0.000000       0.000000       0.000000   25209.255829  -31614.928583     963.901216 
  910000     303.001255   -4611.033487   -5515.125863       0.000000       0.000000       0.000000   24969.403655  -31620.018448    1135.488930 
  920000     297.633379   -4682.933901   -5571.009658       0.000000       0.000000       0.000000   24896.065707  -31615.878184    1148.802819 
  930000     299.253626   -4631.940507   -5524.850741       0.000000       0.000000       0.000000   24978.500363  -31612.996252    1109.645148 
  940000     296.476150   -4591.711796   -5476.334622       0.000000       0.000000       0.000000   25065.317448  -31616.885998    1075.233928 
  950000     309.671280   -4603.646774   -5527.641107       0.000000       0.000000       0.000000   25001.420311  -31613.291889    1084.230471 
  960000     287.737059   -4653.353421   -5511.900628       0.000000       0.000000       0.000000   25014.911760  -31616.584011    1089.771623 
  970000     316.330517   -4500.413468   -5444.277572       0.000000       0.000000       0.000000   25109.508281  -31608.626229    1054.840376 
  980000     311.456406   -4548.825693   -5478.146472       0.000000       0.000000       0.000000   25083.035945  -31615.661761    1054.479344 
  990000     292.662710   -4642.952188   -5516.196506       0.000000       0.000000       0.000000   25038.345489  -31613.194365    1058.652370 
 1000000     309.268188   -4640.846711   -5563.638304       0.000000       0.000000       0.000000   24980.635221  -31616.665727    1072.392201 
 1010000     303.840980   -4647.426671   -5554.024609       0.000000       0.000000       0.000000   24976.673356  -31616.982103    1086.284139 
 1020000     297.075107   -4650.506108   -5536.916097       0.000000       0.000000       0.000000   24997.628292  -31612.706749    1078.162359 
 1030000     305.714738   -4635.225582   -5547.414423       0.000000       0.000000       0.000000   24946.959411  -31619.033526    1124.659692 
 1040000     299.531071   -4569.213568   -5462.951641       0.000000       0.000000       0.000000   25073.701779  -31614.262808    1077.609389 
 1050000     297.538623   -4621.790102   -5509.583125       0.000000       0.000000       0.000000   25015.333029  -31616.485452    1091.569299 
 1060000     297.676620   -4623.794828   -5511.999606       0.000000       0.000000       0.000000   25030.701128  -31616.143710    1073.442976 
 1070000     289.651074   -4689.917547   -5554.175774       0.000000       0.000000       0.000000   25028.654480  -31614.391108    1031.560854 
 1080000     295.737369   -4624.267568   -5506.686027       0.000000       0.000000       0.000000   25076.239574  -31613.842971    1030.917371 
 1090000     293.966645   -4632.745262   -5509.880250       0.000000       0.000000       0.000000   25033.959503  -31614.617992    1070.778238 
 1100000     298.941959   -4575.778086   -5467.758370       0.000000       0.000000       0.000000   25094.291843  -31620.030786    1057.980573 
 1110000     304.486644   -4557.972296   -5466.496762       0.000000       0.000000       0.000000   25080.269804  -31612.198667    1065.432102 
 1120000     300.613625   -4634.332823   -5531.301010       0.000000       0.000000       0.000000   25024.068052  -31613.475146    1058.106084 
 1130000     304.609598   -4605.872814   -5514.764148       0.000000       0.000000       0.000000   24941.653595  -31615.321871    1158.904128 
 1140000     308.775090   -4625.719045   -5547.039338       0.000000       0.000000       0.000000   24950.912147  -31618.759066    1120.807582 
 1150000     295.740523   -4640.188451   -5522.616320       0.000000       0.000000       0.000000   25046.398824  -31617.260869    1048.245725 
 1160000     302.067245   -4663.388573   -5564.694059       0.000000       0.000000       0.000000   24910.703746  -31613.664608    1138.266803 
 1170000     304.210021   -4639.066847   -5546.765927       0.000000       0.000000       0.000000   25000.715109  -31614.894867    1067.413831 
 1180000     296.928551   -4594.106468   -5480.079165       0.000000       0.000000       0.000000   25069.913063  -31614.839667    1064.847439 
 1190000     306.507045   -4542.449041   -5457.001959       0.000000       0.000000       0.000000   25060.595558  -31611.535665    1093.938148 
 1200000     309.666738   -4636.425958   -5560.406741       0.000000       0.000000       0.000000   24974.219959  -31614.059944    1079.433244 
 1210000     286.200592   -4659.289584   -5513.252294       0.000000       0.000000       0.000000   25026.424192  -31616.644603    1076.968116 
 1220000     309.242272   -4537.424345   -5460.138610       0.000000       0.000000       0.000000   25022.835215  -31615.856432    1132.882606 
 1230000     304.747139   -4653.812157   -5563.113885       0.000000       0.000000       0.000000   25005.150339  -31618.047315    1049.783090 
 1240000     293.971453   -4649.648246   -5526.797581       0.000000       0.000000       0.000000   25014.110439  -31613.263935    1072.355915 
 1250000     303.827672   -4609.493335   -5516.051565       0.000000       0.000000       0.000000   25036.892138  -31614.659488    1061.715785 
 1260000     310.497003   -4634.338601   -5560.796721       0.000000       0.000000       0.000000   24977.300702  -31616.609625    1078.512201 
 1270000     299.309514   -4577.982776   -5471.059768       0.000000       0.000000       0.000000   25019.951892  -31615.838825    1124.827166 
 1280000     295.552780   -4675.644274   -5557.511959       0.000000       0.000000       0.000000   24968.039756  -31615.075356    1089.523641 
 1290000     286.089769   -4693.491753   -5547.123790       0.000000       0.000000       0.000000   24958.377201  -31616.887816    1111.386825 
 1300000     316.369778   -4623.479569   -5567.460822       0.000000       0.000000       0.000000   24928.602619  -31613.730907    1117.667466 
 1310000     315.520310   -4611.893469   -5553.340087       0.000000       0.000000       0.000000   24918.962475  -31614.134110    1141.831547 
 1320000     303.952920   -4633.348651   -5540.280595       0.000000       0.000000       0.000000   25019.712087  -31614.876234    1054.883552 
 1330000     309.113177   -4641.861494   -5564.190567       0.000000       0.000000       0.000000   25036.192733  -31613.014275    1012.630975 
 1340000     299.335389   -4623.905614   -5517.059813       0.000000       0.000000       0.000000   25027.875209  -31616.949848    1072.014826 
 1350000     286.069920   -4666.836564   -5520.409377       0.000000       0.000000       0.000000   24992.376670  -31612.120614    1099.334567 
 1360000     314.091144   -4557.727477   -5494.909763       0.000000       0.000000       0.000000   25058.390276  -31613.954221    1060.654182 
 1370000     304.575986   -4682.025969   -5590.817011       0.000000       0.000000       0.000000   24914.733725  -31618.596535    1113.045800 
 1380000     291.624945   -4669.957498   -5540.105344       0.000000       0.000000       0.000000   24950.124071  -31615.226978    1124.997563 
 1390000     302.300122   -4610.662606   -5512.662947       0.000000       0.000000       0.000000   25055.226612  -31614.807278    1046.917719 
 1400000     291.395921   -4630.455605   -5499.920089       0.000000       0.000000       0.000000   25048.530411  -31616.527490    1068.076990 
 1410000     307.727032   -4601.847568   -5520.040674       0.000000       0.000000       0.000000   25027.650363  -31615.450448    1067.759411 
 1420000     299.628983   -4642.079101   -5536.109321       0.000000       0.000000       0.000000   25020.545300  -31619.022687    1062.368065 
 1430000     297.103995   -4638.521415   -5525.017600       0.000000       0.000000       0.000000   24975.878162  -31614.888462    1113.992701 
 1440000     294.559568   -4680.802829   -5559.706974       0.000000       0.000000       0.000000   24974.344062  -31614.166585    1080.115548 
 1450000     299.382749   -4611.483571   -5504.779083       0.000000       0.000000       0.000000   25031.439849  -31613.539583    1077.320651 
 1460000     306.326731   -4593.275265   -5507.290164       0.000000       0.000000       0.000000   25071.975155  -31613.997094    1034.731774 
 1470000     286.754087   -4626.445995   -5482.060220       0.000000       0.000000       0.000000   25078.022386  -31615.568025    1055.485419 
 1480000     311.786350   -4562.681145   -5492.986408       0.000000       0.000000       0.000000   25101.555216  -31614.775253    1020.233629 
 1490000     294.398357   -4642.132236   -5520.555362       0.000000       0.000000       0.000000   25046.713565  -31615.065847    1047.796920 
 1500000     292.888730   -4647.310697   -5521.229414       0.000000       0.000000       0.000000   25029.242036  -31613.194446    1062.722997 
 1510000     307.531482   -4551.084236   -5468.693861       0.000000       0.000000       0.000000   25075.935069  -31615.058961    1070.430031 
 1520000     303.575268   -4663.500687   -5569.305797       0.000000       0.000000       0.000000   24872.303640  -31613.792520    1172.183083 
 1530000     292.239398   -4653.273447   -5525.254692       0.000000       0.000000       0.000000   25042.117636  -31615.623442    1048.251114 
 1540000     311.109913   -4550.219956   -5478.506872       0.000000       0.000000       0.000000   25095.599421  -31610.041597    1035.935304 
 1550000     291.729627   -4641.523809   -5511.984002       0.000000       0.000000       0.000000   25015.720664  -31618.234322    1090.529656 
 1560000     298.094058   -4573.462409   -5462.912735       0.000000       0.000000       0.000000   25093.701127  -31613.309093    1056.695231 
 1570000     293.974587   -4607.740375   -5484.899060       0.000000       0.000000       0.000000   25089.851723  -31612.638805    1037.888022 
 1580000     296.673065   -4589.994060   -5475.204439       0.000000       0.000000       0.000000   25047.793691  -31614.906704    1091.908574 
 1590000     301.199735   -4667.948952   -5566.665968       0.000000       0.000000       0.000000   25001.813849  -31615.164188    1046.684372 
 1600000     302.994965   -4593.983223   -5498.056830       0.000000       0.000000       0.000000   24954.008014  -31612.377041    1160.312196 
 1610000     304.673216   -4586.479516   -5495.560673       0.000000       0.000000       0.000000   25025.306739  -31612.708028    1091.840617 
 1620000     293.175015   -4710.047778   -5584.820709       0.000000       0.000000       0.000000   24960.916044  -31620.459499    1074.722746 
 1630000     307.106802   -4559.146595   -5475.489063       0.000000       0.000000       0.000000   25045.981556  -31613.700683    1092.230064 
 1640000     299.543714   -4613.766201   -5507.541997       0.000000       0.000000       0.000000   25057.645669  -31617.168794    1051.981128 
 1650000     306.087957   -4607.686243   -5520.988693       0.000000       0.000000       0.000000   25084.771608  -31613.131565    1007.371265 
 1660000     314.000257   -4583.632649   -5520.543746       0.000000       0.000000       0.000000   24974.301721  -31613.820684    1118.975217 
 1670000     307.514759   -4624.354413   -5541.914139       0.000000       0.000000       0.000000   24963.697291  -31612.779944    1107.168514 
 1680000     284.266456   -4698.305849   -5546.497501       0.000000       0.000000       0.000000   25030.737241  -31616.006860    1038.772117 
 1690000     293.231484   -4675.577582   -5550.519003       0.000000       0.000000       0.000000   24996.997226  -31618.481905    1070.965676 
 1700000     305.657848   -4664.485571   -5576.504665       0.000000       0.000000       0.000000   24947.636176  -31615.499781    1091.358941 
 1710000     307.164458   -4546.637704   -5463.152208       0.000000       0.000000       0.000000   25048.336225  -31613.075442    1101.587009 
 1720000     296.532428   -4632.967065   -5517.757813       0.000000       0.000000       0.000000   25005.449523  -31615.114421    1091.907086 
 1730000     300.787144   -4662.332990   -5559.818923       0.000000       0.000000       0.000000   24948.594169  -31615.475374    1107.062282 
 1740000     302.324750   -4592.662348   -5494.736173       0.000000       0.000000       0.000000   25050.583345  -31611.763356    1066.443837 
 1750000     304.809295   -4633.361085   -5542.848273       0.000000       0.000000       0.000000   24995.424365  -31618.045270    1079.772632 
 1760000     292.542705   -4622.502768   -5495.389018       0.000000       0.000000       0.000000   25067.871597  -31610.795719    1047.535103 
 1770000     309.351764   -4670.515680   -5593.556646       0.000000       0.000000       0.000000   24934.656967  -31614.248552    1086.034939 
 1780000     308.937584   -4625.701119   -5547.506259       0.000000       0.000000       0.000000   24940.383513  -31610.382989    1122.493217 
 1790000     288.196136   -4613.733670   -5473.650667       0.000000       0.000000       0.000000   25013.351062  -31612.022005    1125.020276 
 1800000     298.633775   -4631.778554   -5522.839282       0.000000       0.000000       0.000000   24977.322759  -31615.487019    1115.324978 
 1810000     299.248767   -4575.973825   -5468.869561       0.000000       0.000000       0.000000   25158.980021  -31613.723027     985.873445 
 1820000     305.820461   -4586.955223   -5499.459520       0.000000       0.000000       0.000000   24983.748192  -31610.870600    1127.662888 
 1830000     312.868194   -4624.699812   -5558.233069       0.000000       0.000000       0.000000   24979.257179  -31613.437348    1075.947100 
 1840000     293.992791   -4640.853110   -5518.066112       0.000000       0.000000       0.000000   25045.039468  -31617.197066    1054.091486 
 1850000     295.552645   -4656.347869   -5538.215151       0.000000       0.000000       0.000000   24982.886263  -31617.029405    1095.927991 
 1860000     288.760898   -4698.591871   -5560.194000       0.000000       0.000000       0.000000   24864.541375  -31614.073798    1189.338422 
 1870000     300.801931   -4633.106835   -5530.636888       0.000000       0.000000       0.000000   24979.429230  -31616.734895    1106.668777 
 1880000     299.518252   -4636.181072   -5529.880895       0.000000       0.000000       0.000000   24964.190008  -31614.626742    1120.555839 
 1890000     304.683881   -4628.956695   -5538.069674       0.000000       0.000000       0.000000   24943.458265  -31616.220529    1134.692590 
 1900000     310.129497   -4625.280474   -5550.642032       0.000000       0.000000       0.000000   25012.320850  -31615.524204    1052.561323 
 1910000     302.687434   -4604.732767   -5507.888766       0.000000       0.000000       0.000000   25090.735014  -31614.243464    1015.619684 
 1920000     302.506836   -4615.670917   -5518.288050       0.000000       0.000000       0.000000   24999.109890  -31617.600347    1100.202407 
 1930000     316.087693   -4537.113521   -5480.253090       0.000000       0.000000       0.000000   25064.755953  -31614.622738    1069.613696 
 1940000     292.871863   -4612.933375   -5486.801763       0.000000       0.000000       0.000000   25069.060932  -31614.741185    1058.878490 
 1950000     301.488357   -4569.988454   -5469.566658       0.000000       0.000000       0.000000   25089.148224  -31614.152692    1055.437810 
 1960000     298.770607   -4630.496324   -5521.965330       0.000000       0.000000       0.000000   25041.557884  -31614.758216    1051.235001 
 1970000     306.624288   -4570.710102   -5485.612849       0.000000       0.000000       0.000000   25080.039014  -31616.481242    1050.829378 
 1980000     299.389239   -4645.141052   -5538.455928       0.000000       0.000000       0.000000   25000.645127  -31613.973084    1074.872029 
 1990000     297.407878   -4595.928293   -5483.331200       0.000000       0.000000       0.000000   25123.372923  -31616.175763    1009.471640 
 2000000     300.460961   -4654.350204   -5550.862875       0.000000       0.000000       0.000000   25031.502279  -31617.127746    1034.762592 
 2010000     302.755642   -4689.352829   -5592.712347       0.000000       0.000000       0.000000   24889.272545  -31616.768088    1134.783196 
 2020000     287.077148   -4655.458457   -5512.036627       0.000000       0.000000       0.000000   24978.390030  -31616.089372    1125.662715 
 2030000     308.509891   -4590.227125   -5510.756118       0.000000       0.000000       0.000000   25013.810476  -31613.977266    1089.410672 
 2040000     299.772223   -4633.190525   -5527.648145       0.000000       0.000000       0.000000   24938.394406  -31614.136122    1148.093572 
 2050000     297.504833   -4607.742507   -5495.434707       0.000000       0.000000       0.000000   25026.355691  -31613.942637    1092.152239 
 2060000     308.583720   -4567.456820   -5488.206104       0.000000       0.000000       0.000000   25053.574642  -31616.600554    1074.819808 
 2070000     289.619867   -4667.486228   -5531.651339       0.000000       0.000000       0.000000   25027.016242  -31613.336627    1054.669046 
 2080000     295.258173   -4719.704433   -5600.693073       0.000000       0.000000       0.000000   24909.299670  -31616.629407    1106.636664 
 2090000     303.534839   -4646.588953   -5552.273432       0.000000       0.000000       0.000000   24924.675353  -31616.590319    1139.641535 
 2100000     306.414011   -4601.710775   -5515.986099       0.000000       0.000000       0.000000   25006.996338  -31616.844527    1093.862090 
 2110000     296.825492   -4668.035429   -5553.700620       0.000000       0.000000       0.000000   24904.539268  -31611.997411    1153.757523 
 2120000     310.781264   -4524.219810   -5451.526104       0.000000       0.000000       0.000000   25186.093745  -31614.067032     976.447183 
 2130000     296.884102   -4675.996958   -5561.837028       0.000000       0.000000       0.000000   24957.851921  -31614.987089    1095.298140 
 2140000     302.223180   -4620.702001   -5522.472764       0.000000       0.000000       0.000000   24974.983902  -31613.525698    1116.069032 
 2150000     311.465271   -4541.939856   -5471.287086       0.000000       0.000000       0.000000   25108.840248  -31616.450246    1036.322911 
 2160000     307.053397   -4686.624303   -5602.807424       0.000000       0.000000       0.000000   24820.739264  -31617.274245    1193.727558 
 2170000     294.638542   -4739.542615   -5618.682404       0.000000       0.000000       0.000000   24824.747998  -31614.147166    1170.716764 
 2180000     313.530340   -4570.593561   -5506.102524       0.000000       0.000000       0.000000   25041.718584  -31613.849428    1066.028319 
 2190000     300.442863   -4617.645572   -5514.104241       0.000000       0.000000       0.000000   24983.821295  -31612.247212    1114.321676 
 2200000     306.138215   -4553.450756   -5466.903163       0.000000       0.000000       0.000000   25077.438604  -31618.530423    1074.188656 
 2210000     299.189037   -4667.046718   -5559.764232       0.000000       0.000000       0.000000   24977.738223  -31617.966056    1080.463601 
 2220000     294.981950   -4644.925369   -5525.089815       0.000000       0.000000       0.000000   25052.083159  -31617.686650    1040.513677 
 2230000     290.598107   -4640.619518   -5507.703495       0.000000       0.000000       0.000000   25042.370438  -31616.426950    1066.353017 
 2240000     289.559108   -4643.098680   -5507.082501       0.000000       0.000000       0.000000   24934.577358  -31615.569523    1173.909664 
 2250000     292.241587   -4639.238021   -5511.225799       0.000000       0.000000       0.000000   25084.345226  -31617.193885    1021.622860 
 2260000     295.191630   -4584.163221   -5464.953310       0.000000       0.000000       0.000000   25098.832507  -31614.822100    1051.036283 
 2270000     302.980454   -4633.498068   -5537.528377       0.000000       0.000000       0.000000   24964.696720  -31613.177676    1110.952579 
 2280000     304.568288   -4632.344372   -5541.112446       0.000000       0.000000       0.000000   24977.683003  -31612.055285    1093.259836 
 2290000     291.898245   -4656.052510   -5527.015826       0.000000       0.000000       0.000000   25032.576011  -31616.549192    1056.957355 
 2300000     306.951117   -4623.673379   -5539.551316       0.000000       0.000000       0.000000   24934.165546  -31611.942481    1138.225619 
 2310000     300.341565   -4642.368955   -5538.525371       0.000000       0.000000       0.000000   24999.831476  -31613.617729    1075.260882 
 2320000     296.503584   -4654.586148   -5539.290830       0.000000       0.000000       0.000000   24982.862085  -31614.854766    1092.701850 
 2330000     301.881641   -4673.622167   -5574.373849       0.000000       0.000000       0.000000   24893.526240  -31614.379423    1146.479334 
 2340000     293.409999   -4610.665635   -5486.139710       0.000000       0.000000       0.000000   25018.553266  -31613.358832    1108.665856 
 2350000     309.038650   -4616.191772   -5538.298472       0.000000       0.000000       0.000000   24925.018205  -31612.276748    1148.960071 
 2360000     303.944333   -4654.846151   -5561.752474       0.000000       0.000000       0.000000   24940.105445  -31614.677337    1112.819418 
 2370000     301.480887   -4651.204942   -5550.760856       0.000000       0.000000       0.000000   24916.782626  -31613.023563    1145.480081 
 2380000     300.687795   -4687.122760   -5584.312255       0.000000       0.000000       0.000000   24961.224438  -31618.801236    1073.264543 
 2390000     290.721761   -4677.133804   -5544.586736       0.000000       0.000000       0.000000   24947.817146  -31616.125351    1123.721469 
 2400000     304.178854   -4660.694107   -5568.300191       0.000000       0.000000       0.000000   24961.712363  -31617.997453    1087.984898 
 2410000     301.141187   -4611.310990   -5509.853312       0.000000       0.000000       0.000000   25070.622724  -31612.289029    1031.812993 
 2420000     301.808912   -4643.373706   -5543.908379       0.000000       0.000000       0.000000   24978.546774  -31613.217794    1090.762641 
 2430000     310.015398   -4616.294574   -5541.315684       0.000000       0.000000       0.000000   25016.421368  -31615.766372    1058.029320 
 2440000     306.504767   -4600.547049   -5515.093171       0.000000       0.000000       0.000000   25027.584760  -31616.095803    1073.417873 
 2450000     290.729901   -4624.386840   -5491.864061       0.000000       0.000000       0.000000   25044.908084  -31615.267000    1078.494855 
 2460000     305.752469   -4633.405220   -5545.706643       0.000000       0.000000       0.000000   24960.606021  -31615.588278    1109.275613 
 2470000     306.210072   -4615.119574   -5528.786388       0.000000       0.000000       0.000000   25026.982837  -31613.947100    1058.177876 
 2480000     299.852253   -4644.602077   -5539.298490       0.000000       0.000000       0.000000   24960.077674  -31615.788692    1116.412528 
 2490000     298.922326   -4702.742386   -5594.664091       0.000000       0.000000       0.000000   24867.786288  -31616.531403    1154.081024 
 2500000     305.982296   -4603.502526   -5516.489705       0.000000       0.000000       0.000000   24987.218740  -31614.833268    1111.124823 
 2510000     311.910756   -4549.553060   -5480.229523       0.000000       0.000000       0.000000   25049.770910  -31613.491937    1083.491504 
 2520000     290.698138   -4613.060563   -5480.443011       0.000000       0.000000       0.000000   25068.009912  -31618.204013    1069.751089 
 2530000     296.167523   -4616.086429   -5499.788376       0.000000       0.000000       0.000000   25055.111578  -31613.913085    1059.013131 
 2540000     302.245946   -4690.014329   -5591.853020       0.000000       0.000000       0.000000   24977.570074  -31619.128408    1049.705314 
 2550000     299.194969   -4604.455577   -5497.190792       0.000000       0.000000       0.000000   25048.578247  -31615.647493    1069.878454 
 2560000     302.089458   -4657.641947   -5559.013712       0.000000       0.000000       0.000000   24937.463821  -31611.323579    1114.846046 
 2570000     310.026237   -4586.301560   -5511.355014       0.000000       0.000000       0.000000   24932.144772  -31611.091094    1167.591309 
 2580000     299.997978   -4663.680158   -5558.811384       0.000000       0.000000       0.000000   24979.219836  -31617.250441    1079.219221 
 2590000     305.827382   -4614.825463   -5527.350410       0.000000       0.000000       0.000000   24997.932382  -31613.272118    1087.989325 
 2600000     289.583142   -4676.010316   -5540.065847       0.000000       0.000000       0.000000   24953.578319  -31613.826096    1120.181930 
 2610000     306.297942   -4579.479258   -5493.408257       0.000000       0.000000       0.000000   24986.058593  -31612.554915    1133.088066 
 2620000     317.670583   -4607.143494   -5555.006075       0.000000       0.000000       0.000000   24878.397940  -31615.925968    1182.521953 
 2630000     299.321711   -4603.458893   -5496.572278       0.000000       0.000000       0.000000   25042.703777  -31612.396897    1073.120842 
 2640000     299.109992   -4640.639523   -5533.121182       0.000000       0.000000       0.000000   24954.348419  -31614.960211    1127.490610 
 2650000     291.746897   -4677.765559   -5548.277282       0.000000       0.000000       0.000000   24942.369174  -31617.162245    1126.515789 
 2660000     305.915386   -4628.949276   -5541.736810       0.000000       0.000000       0.000000   24926.896104  -31617.396220    1148.763306 
 2670000     290.963663   -4636.410171   -5504.584890       0.000000       0.000000       0.000000   25054.712458  -31614.735370    1055.438022 
 2680000     300.415861   -4610.531018   -5506.909120       0.000000       0.000000       0.000000   25024.424161  -31613.993523    1082.660242 
 2690000     308.245278   -4613.881659   -5533.621103       0.000000       0.000000       0.000000   24999.819459  -31618.820170    1085.379608 
 2700000     302.164832   -4612.468203   -5514.064868       0.000000       0.000000       0.000000   24970.136543  -31614.197482    1129.996071 
 2710000     317.340994   -4573.353054   -5520.232210       0.000000       0.000000       0.000000   24951.707488  -31616.852126    1144.912428 
 2720000     301.385324   -4681.254869   -5580.525645       0.000000       0.000000       0.000000   24931.497781  -31616.067411    1104.043986 
 2730000     292.733821   -4641.730673   -5515.187173       0.000000       0.000000       0.000000   25045.641942  -31614.332866    1053.503752 
 2740000     306.753754   -4655.970971   -5571.260018       0.000000       0.000000       0.000000   24908.901174  -31614.757267    1134.596075 
 2750000     302.322121   -4629.613557   -5531.679538       0.000000       0.000000       0.000000   24982.725809  -31616.702896    1102.297549 
 2760000     319.355052   -4562.151241   -5515.039924       0.000000       0.000000       0.000000   24990.171442  -31613.529570    1108.318203 
 2770000     304.572208   -4656.920492   -5565.700263       0.000000       0.000000       0.000000   24975.683437  -31614.958838    1073.575138 
 2780000     317.569240   -4543.906408   -5491.466604       0.000000       0.000000       0.000000   25047.240683  -31614.137035    1075.429747 
 2790000     310.779538   -4566.082187   -5493.383332       0.000000       0.000000       0.000000   25016.131666  -31614.361994    1104.846996 
 2800000     293.927583   -4694.931226   -5571.949662       0.000000       0.000000       0.000000   24802.572136  -31617.024823    1242.503025 
 2810000     300.990116   -4634.491432   -5532.582990       0.000000       0.000000       0.000000   25001.296150  -31612.098720    1078.219579 
 2820000     316.364041   -4550.396382   -5494.360517       0.000000       0.000000       0.000000   25083.992803  -31611.556810    1033.203491 
 2830000     309.565525   -4664.803075   -5588.481859       0.000000       0.000000       0.000000   24834.742074  -31611.819541    1188.595609 
 2840000     305.440880   -4650.117059   -5561.488765       0.000000       0.000000       0.000000   24955.040129  -31612.860500    1096.331606 
 2850000     287.813118   -4690.955440   -5549.729591       0.000000       0.000000       0.000000   24968.735771  -31613.134600    1094.669238 
 2860000     304.024352   -4583.989293   -5491.134376       0.000000       0.000000       0.000000   25074.758864  -31611.507361    1045.614121 
 2870000     293.751327   -4609.440249   -5485.932775       0.000000       0.000000       0.000000   25013.256004  -31616.017155    1116.828375 
 2880000     308.675170   -4660.564624   -5581.586775       0.000000       0.000000       0.000000   24919.628247  -31618.148672    1116.933650 
 2890000     300.370259   -4629.081791   -5525.323825       0.000000       0.000000       0.000000   25015.562417  -31614.584463    1073.698221 
 2900000     292.474415   -4705.228280   -5577.910765       0.000000       0.000000       0.000000   24943.182041  -31613.385770    1092.292964 
 2910000     317.494333   -4604.545672   -5551.882360       0.000000       0.000000       0.000000   25002.065828  -31615.852938    1061.904750 
 2920000     291.017611   -4663.705723   -5532.041410       0.000000       0.000000       0.000000   24957.635608  -31614.523878    1124.846860 
 2930000     306.147318   -4618.736788   -5532.216358       0.000000       0.000000       0.000000   24966.503457  -31613.468193    1114.748378 
 2940000     289.127179   -4645.156127   -5507.851162       0.000000       0.000000       0.000000   25024.550202  -31615.750464    1083.349099 
 2950000     290.990690   -4681.921393   -5550.176753       0.000000       0.000000       0.000000   24962.074681  -31618.121931    1105.870496 
 2960000     291.154576   -4684.600470   -5553.344831       0.000000       0.000000       0.000000   24990.369565  -31617.855366    1074.140969 
 2970000     296.846657   -4623.641459   -5509.369799       0.000000       0.000000       0.000000   25004.768205  -31614.848711    1100.710706 
 2980000     291.751891   -4650.862143   -5521.388770       0.000000       0.000000       0.000000   25022.701332  -31613.526982    1069.436880 
 2990000     295.960588   -4649.379096   -5532.463594       0.000000       0.000000       0.000000   24927.222864  -31613.824324    1154.137866 
 3000000     294.667426   -4673.069293   -5552.295266       0.000000       0.000000       0.000000   24957.700310  -31616.879975    1106.884399 
 3010000     298.913724   -4654.523590   -5546.419628       0.000000       0.000000       0.000000   24965.876282  -31615.383998    1103.088088 
 3020000     299.625714   -4593.449277   -5487.469745       0.000000       0.000000       0.000000   25073.490147  -31614.424646    1053.464753 
 3030000     306.915927   -4522.916327   -5438.689266       0.000000       0.000000       0.000000   25152.458262  -31612.433938    1021.286410 
 3040000     310.872148   -4572.678974   -5500.256447       0.000000       0.000000       0.000000   24999.196770  -31610.505148    1111.051932 
 3050000     304.925578   -4661.511474   -5571.345627       0.000000       0.000000       0.000000   24956.497886  -31615.880942    1088.037429 
 3060000     298.045935   -4673.685331   -5562.992067       0.000000       0.000000       0.000000   24954.824008  -31615.614769    1097.798693 
 3070000     304.060011   -4726.347368   -5633.598849       0.000000       0.000000       0.000000   24825.478474  -31616.859344    1157.782021 
 3080000     300.548944   -4653.290269   -5550.065461       0.000000       0.000000       0.000000   25007.543769  -31615.003715    1057.394485 
 3090000     315.375872   -4606.290690   -5547.306334       0.000000       0.000000       0.000000   24995.656092  -31615.238055    1072.275629 
 3100000     301.684575   -4572.121787   -5472.285464       0.000000       0.000000       0.000000   25149.883128  -31616.571824     994.403231 
 3110000     303.513069   -4600.430185   -5506.049708       0.000000       0.000000       0.000000   25023.468124  -31617.473198    1087.955366 
 3120000     307.863326   -4602.634368   -5521.234146       0.000000       0.000000       0.000000   25030.729697  -31616.156869    1064.193027 
 3130000     315.602601   -4544.283564   -5485.975721       0.000000       0.000000       0.000000   25088.353872  -31617.498636    1043.169043 
 3140000     304.245391   -4588.983877   -5496.788493       0.000000       0.000000       0.000000   25022.728880  -31620.445027    1100.927655 
 3150000     297.528495   -4584.880878   -5472.643680       0.000000       0.000000       0.000000   25029.171501  -31614.693689    1112.878508 
 3160000     294.609425   -4668.541519   -5547.594430       0.000000       0.000000       0.000000   24955.230499  -31615.094465    1112.269535 
 3170000     302.665437   -4609.953712   -5513.044075       0.000000       0.000000       0.000000   24988.584730  -31613.439473    1111.810668 
 3180000     291.742754   -4601.364890   -5471.864254       0.000000       0.000000       0.000000   25067.864267  -31615.215179    1075.486658 
 3190000     308.449755   -4585.013016   -5505.362576       0.000000       0.000000       0.000000   25039.562511  -31617.458588    1072.533501 
 3200000     291.197511   -4674.542410   -5543.414882       0.000000       0.000000       0.000000   25002.618629  -31617.749109    1071.715598 
 3210000     297.963943   -4639.167300   -5528.229389       0.000000       0.000000       0.000000   24999.279588  -31617.628226    1090.119250 
 3220000     289.350516   -4710.093172   -5573.454596       0.000000       0.000000       0.000000   24912.384387  -31619.864181    1134.025199 
 3230000     305.005352   -4657.943864   -5568.016046       0.000000       0.000000       0.000000   24927.226865  -31615.652126    1120.409216 
 3240000     310.443426   -4539.014490   -5465.312746       0.000000       0.000000       0.000000   25073.300376  -31609.907487    1071.294364 
 3250000     295.840322   -4653.152733   -5535.878382       0.000000       0.000000       0.000000   24982.043939  -31614.583097    1096.660776 
 3260000     297.607424   -4671.332568   -5559.330879       0.000000       0.000000       0.000000   24939.636996  -31609.999456    1111.031581 
 3270000     288.929106   -4653.233860   -5515.337887       0.000000       0.000000       0.000000   24990.562999  -31619.323284    1113.422397 
 3280000     301.917714   -4625.215570   -5526.074886       0.000000       0.000000       0.000000   25094.359528  -31612.349531     991.915117 
 3290000     294.229590   -4613.025400   -5490.944961       0.000000       0.000000       0.000000   25106.648463  -31617.121004    1019.527580 
 3300000     309.100829   -4608.708921   -5531.001150       0.000000       0.000000       0.000000   25000.321973  -31615.127067    1083.803944 
 3310000     285.247690   -4602.183750   -5453.303200       0.000000       0.000000       0.000000   25038.993476  -31611.976046    1119.679370 
 3320000     304.088596   -4583.278685   -5490.615458       0.000000       0.000000       0.000000   25027.500519  -31615.873638    1097.757661 
 3330000     293.748363   -4678.801416   -5555.285098       0.000000       0.000000       0.000000   25008.489347  -31616.889234    1053.114790 
 3340000     311.307791   -4628.627963   -5557.505305       0.000000       0.000000       0.000000   24936.965022  -31614.226740    1119.756413 
 3350000     319.257076   -4516.166560   -5468.762906       0.000000       0.000000       0.000000   25002.230666  -31616.496351    1145.502779 
 3360000     296.671402   -4696.247015   -5581.452434       0.000000       0.000000       0.000000   24913.174740  -31612.058414    1117.431240 
 3370000     302.943688   -4634.022279   -5537.942887       0.000000       0.000000       0.000000   24989.521353  -31613.863064    1086.398825 
 3380000     295.298827   -4650.806268   -5531.916209       0.000000       0.000000       0.000000   25021.955963  -31613.098971    1059.226800 
 3390000     291.165811   -4676.125514   -5544.903401       0.000000       0.000000       0.000000   25013.943140  -31618.772982    1059.926441 
 3400000     296.447055   -4646.699892   -5531.235907       0.000000       0.000000       0.000000   24951.967397  -31616.652469    1133.449166 
 3410000     295.341012   -4604.433221   -5485.669034       0.000000       0.000000       0.000000   25068.442031  -31610.774143    1056.663078 
 3420000     302.523065   -4624.551216   -5527.216773       0.000000       0.000000       0.000000   25013.156977  -31616.007320    1075.633570 
 3430000     292.259201   -4692.053890   -5564.094224       0.000000       0.000000       0.000000   24898.674906  -31612.927313    1150.158183 
 3440000     293.070846   -4617.227774   -5491.689887       0.000000       0.000000       0.000000   25015.852297  -31616.087653    1108.545468 
 3450000     291.610461   -4663.676600   -5533.781229       0.000000       0.000000       0.000000   25003.065166  -31617.393404    1080.547009 
 3460000     295.963058   -4613.671444   -5496.763313       0.000000       0.000000       0.000000   25031.786540  -31613.521232    1084.971379 
 3470000     292.543433   -4640.302235   -5513.190656       0.000000       0.000000       0.000000   24988.381789  -31612.327414    1110.754969 
 3480000     307.234136   -4601.996540   -5518.718947       0.000000       0.000000       0.000000   25015.255726  -31615.841646    1081.866972 
 3490000     304.393791   -4593.326271   -5501.573683       0.000000       0.000000       0.000000   24968.599585  -31618.038329    1147.865061 
 3500000     300.466333   -4622.105240   -5518.633938       0.000000       0.000000       0.000000   24941.442265  -31615.485555    1155.409351 
 3510000     283.767603   -4716.802982   -5563.506164       0.000000       0.000000       0.000000   24887.273332  -31613.166159    1162.386664 
 3520000     289.198855   -4680.555295   -5543.464197       0.000000       0.000000       0.000000   24928.654739  -31617.502313    1145.383378 
 3530000     299.630058   -4556.182885   -5450.216312       0.000000       0.000000       0.000000   25063.234444  -31610.891793    1097.441037 
 3540000     314.822927   -4557.155516   -5496.521288       0.000000       0.000000       0.000000   25009.454533  -31615.201943    1109.226122 
 3550000     294.163674   -4612.461461   -5490.184343       0.000000       0.000000       0.000000   25064.922273  -31613.730725    1058.624109 
 3560000     302.530141   -4655.885386   -5558.572057       0.000000       0.000000       0.000000   25051.609876  -31615.548343    1005.366410 
 3570000     297.707013   -4605.050009   -5493.345472       0.000000       0.000000       0.000000   25018.767505  -31615.121601    1103.008624 
 3580000     300.649913   -4608.435866   -5505.512329       0.000000       0.000000       0.000000   24944.947718  -31611.652651    1161.192604 
 3590000     287.099799   -4667.894985   -5524.540742       0.000000       0.000000       0.000000   24942.649737  -31615.351794    1148.161316 
 3600000     296.500304   -4578.662055   -5463.356952       0.000000       0.000000       0.000000   25157.952527  -31614.073154     992.763675 
 3610000     307.740359   -4619.137831   -5537.370702       0.000000       0.000000       0.000000   24997.597049  -31616.234544    1081.266792 
 3620000     297.883957   -4667.786834   -5556.610263       0.000000       0.000000       0.000000   24953.133059  -31618.369205    1108.625883 
 3630000     302.585756   -4586.409855   -5489.262467       0.000000       0.000000       0.000000   25004.192315  -31616.139868    1122.685086 
 3640000     310.396070   -4625.593887   -5551.750844       0.000000       0.000000       0.000000   24899.915335  -31614.187085    1162.520906 
 3650000     312.363095   -4630.950738   -5562.976886       0.000000       0.000000       0.000000   24886.135264  -31618.955012    1169.842862 
 3660000     298.640218   -4657.859576   -5548.939528       0.000000       0.000000       0.000000   24958.588297  -31616.425340    1108.897515 
 3670000     298.824496   -4631.093589   -5522.723389       0.000000       0.000000       0.000000   24969.124529  -31616.837979    1124.990061 
 3680000     300.400603   -4586.711006   -5483.043580       0.000000       0.000000       0.000000   25074.619676  -31617.948825    1060.285570 
 3690000     303.560064   -4602.008632   -5507.768376       0.000000       0.000000       0.000000   25047.208684  -31614.189125    1059.212065 
 3700000     287.913482   -4612.991883   -5472.065498       0.000000       0.000000       0.000000   25101.511872  -31617.724043    1044.146673 
 3710000     305.170931   -4618.141831   -5528.708066       0.000000       0.000000       0.000000   24979.121317  -31617.291068    1109.461686 
 3720000     287.541464   -4646.328446   -5504.292038       0.000000       0.000000       0.000000   24981.342953  -31617.214322    1131.579330 
 3730000     308.655776   -4572.100617   -5493.064900       0.000000       0.000000       0.000000   25069.766041  -31616.204230    1053.373289 
 3740000     308.019163   -4615.021199   -5534.085962       0.000000       0.000000       0.000000   24981.887375  -31613.863656    1097.890319 
 3750000     290.654883   -4636.722674   -5503.976056       0.000000       0.000000       0.000000   25034.335325  -31615.021181    1076.709799 
 3760000     291.146480   -4603.389559   -5472.109765       0.000000       0.000000       0.000000   25107.092880  -31612.784019    1033.581374 
 3770000     300.701185   -4637.980358   -5535.209805       0.000000       0.000000       0.000000   25029.435303  -31617.486562    1052.841455 
 3780000     302.135906   -4682.914043   -5584.424398       0.000000       0.000000       0.000000   24943.565361  -31617.192760    1089.203001 
 3790000     295.614978   -4668.649549   -5550.702820       0.000000       0.000000       0.000000   24966.623433  -31608.778359    1091.452107 
 3800000     303.770330   -4616.545181   -5522.932315       0.000000       0.000000       0.000000   24988.027701  -31614.472769    1103.512753 
 3810000     296.881694   -4721.796261   -5607.629147       0.000000       0.000000       0.000000   24820.928996  -31619.744744    1191.186602 
 3820000     286.392679   -4679.187065   -5533.722923       0.000000       0.000000       0.000000   24965.319840  -31617.568207    1118.525443 
 3830000     301.764327   -4666.702475   -5567.104116       0.000000       0.000000       0.000000   24919.481169  -31613.760451    1127.175166 
 3840000     302.442746   -4635.284735   -5537.710637       0.000000       0.000000       0.000000   24969.413264  -31617.443445    1110.319544 
 3850000     298.421611   -4599.416209   -5489.843885       0.000000       0.000000       0.000000   24994.451348  -31613.358793    1129.063559 
 3860000     286.755747   -4661.461172   -5517.080348       0.000000       0.000000       0.000000   25051.272272  -31611.595488    1043.242867 
 3870000     297.410356   -4636.758050   -5524.168353       0.000000       0.000000       0.000000   25004.569677  -31613.323383    1084.585353 
 3880000     299.890809   -4608.189299   -5503.000753       0.000000       0.000000       0.000000   24994.647120  -31616.762526    1119.114653 
 3890000     300.673385   -4603.535609   -5500.682108       0.000000       0.000000       0.000000   25053.261577  -31616.250804    1062.307118 
 3900000     307.685601   -4677.348914   -5595.418398       0.000000       0.000000       0.000000   24899.651774  -31618.666815    1123.596643 
 3910000     294.848247   -4620.884062   -5500.649565       0.000000       0.000000       0.000000   25012.586604  -31611.991592    1098.755423 
 3920000     294.666134   -4621.031919   -5500.254036       0.000000       0.000000       0.000000   25041.617657  -31613.483040    1071.611347 
 3930000     298.437622   -4687.784057   -5578.259507       0.000000       0.000000       0.000000   24852.600844  -31616.177306    1185.316956 
 3940000     281.551646   -4646.875156   -5486.966384       0.000000       0.000000       0.000000   25013.115738  -31614.070661    1113.988539 
 3950000     289.469112   -4622.616845   -5486.332135       0.000000       0.000000       0.000000   25022.900209  -31613.504432    1104.272087 
 3960000     305.758016   -4683.294714   -5595.612687       0.000000       0.000000       0.000000   24915.206288  -31616.869967    1106.050992 
 3970000     293.256638   -4597.827666   -5472.844142       0.000000       0.000000       0.000000   25105.334187  -31612.229584    1034.051255 
 3980000     297.571879   -4631.769374   -5519.661627       0.000000       0.000000       0.000000   25014.822412  -31616.948023    1082.463983 
 3990000     303.833340   -4679.745449   -5586.320591       0.000000       0.000000       0.000000   24897.714235  -31614.947529    1130.912703 
 4000000     311.816409   -4570.947939   -5501.342891       0.000000       0.000000       0.000000   25003.144567  -31614.414108    1109.926650 
 4010000     292.799233   -4679.333068   -5552.984743       0.000000       0.000000       0.000000   25003.384462  -31617.781182    1061.411978 
 4020000     301.396261   -4617.061154   -5516.364564       0.000000       0.000000       0.000000   24969.516892  -31616.885647    1131.004191 
 4030000     301.170626   -4639.773030   -5538.403191       0.000000       0.000000       0.000000   24919.961488  -31615.926523    1157.561843 
 4040000     305.939641   -4609.979071   -5522.838975       0.000000       0.000000       0.000000   25058.118664  -31616.474484    1035.516844 
 4050000     280.965577   -4671.658152   -5510.000674       0.000000       0.000000       0.000000   25018.989653  -31612.422008    1083.431681 
 4060000     302.689457   -4602.401758   -5505.563792       0.000000       0.000000       0.000000   25092.978696  -31618.996197    1020.453709 
 4070000     297.274509   -4642.100325   -5529.105289       0.000000       0.000000       0.000000   25007.993928  -31618.785295    1081.686077 
 4080000     293.840151   -4685.474711   -5562.232267       0.000000       0.000000       0.000000   24926.646846  -31615.335889    1126.456775 
 4090000     301.158287   -4659.584518   -5558.177863       0.000000       0.000000       0.000000   25003.695607  -31611.209545    1049.336076 
 4100000     290.263820   -4739.012191   -5605.098724       0.000000       0.000000       0.000000   24859.113189  -31617.094650    1152.882737 
 4110000     303.183807   -4612.311194   -5516.948265       0.000000       0.000000       0.000000   24968.946307  -31616.777446    1130.882874 
 4120000     298.259684   -4593.068389   -5483.012906       0.000000       0.000000       0.000000   25038.476434  -31604.871850    1083.382510 
 4130000     303.443229   -4608.164663   -5513.575796       0.000000       0.000000       0.000000   24960.111132  -31615.649848    1141.962920 
 4140000     302.883240   -4647.993820   -5551.734061       0.000000       0.000000       0.000000   24981.374640  -31613.967107    1080.858405 
 4150000     293.609030   -4663.439409   -5539.507348       0.000000       0.000000       0.000000   24931.322905  -31616.882476    1146.052222 
 4160000     299.208965   -4649.239973   -5542.016948       0.000000       0.000000       0.000000   24984.608698  -31614.534486    1087.908839 
 4170000     299.500415   -4648.268977   -5541.915580       0.000000       0.000000       0.000000   24983.958348  -31616.981468    1091.107541 
 4180000     286.741989   -4670.270538   -5525.848665       0.000000       0.000000       0.000000   25036.482665  -31611.406343    1049.075013 
 4190000     305.501759   -4592.272330   -5503.825688       0.000000       0.000000       0.000000   24995.678563  -31610.002277    1110.498026 
 4200000     304.926037   -4637.826248   -5547.661769       0.000000       0.000000       0.000000   24928.515738  -31614.551511    1138.374004 
 4210000     298.249917   -4648.029759   -5537.945136       0.000000       0.000000       0.000000   24965.367418  -31619.750213    1116.437659 
 4220000     307.830177   -4575.492898   -5493.993767       0.000000       0.000000       0.000000   25065.563165  -31617.575999    1058.019067 
 4230000     297.152448   -4657.135212   -5543.775971       0.000000       0.000000       0.000000   24855.213967  -31614.370770    1215.380832 
 4240000     313.279585   -4569.323429   -5504.084192       0.000000       0.000000       0.000000   24944.326848  -31612.482917    1164.071876 
 4250000     289.201361   -4650.881046   -5513.797423       0.000000       0.000000       0.000000   24913.357450  -31610.816901    1183.662028 
 4260000     297.252284   -4666.498417   -5553.437066       0.000000       0.000000       0.000000   25048.556440  -31613.688833    1011.695328 
 4270000     305.973517   -4499.469115   -5412.430099       0.000000       0.000000       0.000000   25162.471184  -31612.344472    1037.443190 
 4280000     295.803327   -4631.642286   -5514.257550       0.000000       0.000000       0.000000   25064.251315  -31612.171976    1033.663111 
 4290000     289.420151   -4626.052994   -5489.622195       0.000000       0.000000       0.000000   25014.704344  -31614.665566    1110.339027 
 4300000     306.032031   -4588.961200   -5502.096776       0.000000       0.000000       0.000000   25027.922310  -31620.514074    1090.494988 
 4310000     291.017389   -4631.837782   -5500.172807       0.000000       0.000000       0.000000   24998.974759  -31613.359498    1114.211932 
 4320000     295.832151   -4665.908094   -5548.609363       0.000000       0.000000       0.000000   25061.427027  -31616.271582    1006.235192 
 4330000     302.278680   -4637.360921   -5539.297285       0.000000       0.000000       0.000000   24983.140579  -31614.742739    1092.304875 
 4340000     312.843797   -4576.884202   -5510.344663       0.000000       0.000000       0.000000   25036.119587  -31614.414019    1067.949768 
 4350000     311.241796   -4600.409045   -5529.089470       0.000000       0.000000       0.000000   25001.095341  -31618.626003    1088.441192 
 4360000     290.929126   -4642.311011   -5510.382678       0.000000       0.000000       0.000000   25087.091415  -31612.649027    1015.174933 
 4370000     297.849318   -4555.151985   -5443.872057       0.000000       0.000000       0.000000   25160.197968  -31614.929804    1010.859780 
 4380000     307.334510   -4612.642914   -5529.664815       0.000000       0.000000       0.000000   25049.762207  -31612.965981    1033.538959 
 4390000     309.816346   -4594.764747   -5519.191930       0.000000       0.000000       0.000000   25000.585683  -31614.570475    1094.792863 
 4400000     308.459068   -4627.922987   -5548.300335       0.000000       0.000000       0.000000   24955.514697  -31617.769367    1113.954335 
 4410000     298.086910   -4654.767859   -5544.196857       0.000000       0.000000       0.000000   24969.258738  -31617.542066    1104.086472 
 4420000     309.882609   -4653.390640   -5578.015537       0.000000       0.000000       0.000000   24886.090629  -31615.797157    1151.690991 
 4430000     295.904157   -4630.373813   -5513.289932       0.000000       0.000000       0.000000   25034.234187  -31614.322260    1066.798141 
 4440000     294.141579   -4694.137783   -5571.794737       0.000000       0.000000       0.000000   25002.320642  -31615.007312    1040.891933 
 4450000     306.334846   -4688.425536   -5602.464650       0.000000       0.000000       0.000000   24835.199747  -31613.364879    1175.700482 
 4460000     294.235511   -4600.990287   -5478.927515       0.000000       0.000000       0.000000   25155.766651  -31616.142947     981.448781 
 4470000     296.354389   -4675.347536   -5559.607052       0.000000       0.000000       0.000000   24874.484481  -31612.979886    1178.888353 
 4480000     301.109301   -4646.473641   -5544.920820       0.000000       0.000000       0.000000   24978.893293  -31616.599632    1092.785519 
 4490000     302.995534   -4597.982526   -5502.057832       0.000000       0.000000       0.000000   25080.974245  -31612.514910    1029.482833 
 4500000     302.006714   -4620.720470   -5521.845343       0.000000       0.000000       0.000000   24928.730086  -31612.079285    1161.503856 
 4510000     284.773013   -4623.054621   -5472.757735       0.000000       0.000000       0.000000   24986.928066  -31607.386837    1147.701036 
 4520000     299.392601   -4651.743051   -5545.067957       0.000000       0.000000       0.000000   25011.739868  -31617.354269    1060.546444 
 4530000     295.795033   -4679.255901   -5561.846416       0.000000       0.000000       0.000000   24934.650307  -31618.582185    1122.085462 
 4540000     309.109771   -4613.896136   -5536.215047       0.000000       0.000000       0.000000   24923.030734  -31612.620816    1153.375035 
 4550000     302.431356   -4632.116648   -5534.508565       0.000000       0.000000       0.000000   24968.478948  -31610.355162    1107.367650 
 4560000     305.998174   -4603.332053   -5516.366608       0.000000       0.000000       0.000000   25009.218435  -31614.034973    1088.449930 
 4570000     296.556292   -4640.873911   -5525.735865       0.000000       0.000000       0.000000   25037.570265  -31616.406329    1053.100199 
 4580000     285.630763   -4702.842448   -5555.104908       0.000000       0.000000       0.000000   24951.781862  -31613.589917    1106.703147 
 4590000     304.266771   -4598.076880   -5505.945290       0.000000       0.000000       0.000000   24948.746504  -31615.216546    1160.524752 
 4600000     304.384408   -4673.903725   -5582.123140       0.000000       0.000000       0.000000   24857.103975  -31615.804621    1176.577507 
 4610000     308.317882   -4599.685943   -5519.642020       0.000000       0.000000       0.000000   25008.108676  -31617.597038    1089.846342 
 4620000     289.634667   -4671.708283   -5535.917555       0.000000       0.000000       0.000000   24958.334093  -31615.488303    1121.236655 
 4630000     310.494331   -4569.426287   -5495.876433       0.000000       0.000000       0.000000   25096.123328  -31616.374325    1024.374564 
 4640000     299.851428   -4651.861438   -5546.555389       0.000000       0.000000       0.000000   24993.653165  -31612.694431    1072.485878 
 4650000     298.415056   -4641.274596   -5531.682712       0.000000       0.000000       0.000000   24966.733482  -31614.561808    1116.145614 
 4660000     309.871978   -4638.534509   -5563.127684       0.000000       0.000000       0.000000   24936.495438  -31616.812374    1117.189252 
 4670000     298.981199   -4644.600087   -5536.697456       0.000000       0.000000       0.000000   24991.959055  -31617.246620    1088.590108 
 4680000     303.603379   -4578.302657   -5484.191645       0.000000       0.000000       0.000000   25098.381303  -31613.547867    1030.974919 
 4690000     296.675937   -4630.762119   -5515.981067       0.000000       0.000000       0.000000   25041.780374  -31610.555714    1052.794274 
 4700000     296.033706   -4696.836686   -5580.139354       0.000000       0.000000       0.000000   24914.268283  -31614.573844    1120.166208 
 4710000     303.890121   -4569.907460   -5476.652026       0.000000       0.000000       0.000000   25091.791101  -31615.322209    1046.879082 
 4720000     291.560448   -4687.030355   -5556.985755       0.000000       0.000000       0.000000   24976.743196  -31613.270900    1079.541949 
 4730000     307.056482   -4610.629306   -5526.821631       0.000000       0.000000       0.000000   24975.426607  -31616.995780    1114.747542 
 4740000     308.741387   -4543.243477   -5464.463207       0.000000       0.000000       0.000000   25092.116054  -31615.094405    1058.515145 
 4750000     288.001226   -4717.178619   -5576.514045       0.000000       0.000000       0.000000   24951.890626  -31618.907554    1090.502884 
 4760000     306.044204   -4593.768038   -5506.939936       0.000000       0.000000       0.000000   24997.137467  -31613.573367    1109.495964 
 4770000     294.797341   -4621.906414   -5501.520027       0.000000       0.000000       0.000000   25029.053418  -31618.482632    1087.909187 
 4780000     309.700913   -4594.448604   -5518.531359       0.000000       0.000000       0.000000   24991.150752  -31614.867112    1105.185001 
 4790000     303.538881   -4626.042313   -5531.738852       0.000000       0.000000       0.000000   25026.715186  -31616.023156    1057.569118 
 4800000     308.690127   -4635.739368   -5556.806149       0.000000       0.000000       0.000000   24929.098387  -31611.902314    1125.997778 
 4810000     309.587703   -4608.063971   -5531.808930       0.000000       0.000000       0.000000   24990.752677  -31614.215520    1091.653913 
 4820000     306.135939   -4626.412779   -5539.858396       0.000000       0.000000       0.000000   24992.182389  -31617.294154    1085.253370 
 4830000     298.955394   -4572.489116   -5464.509487       0.000000       0.000000       0.000000   25028.570007  -31612.552672    1119.473177 
 4840000     294.067886   -4617.321079   -5494.758151       0.000000       0.000000       0.000000   25031.391754  -31616.042005    1089.892101 
 4850000     304.615911   -4630.041778   -5538.951948       0.000000       0.000000       0.000000   25012.321906  -31615.429026    1064.155171 
 4860000     300.619094   -4640.584503   -5537.569007       0.000000       0.000000       0.000000   24946.578994  -31614.466576    1130.318576 
 4870000     299.708815   -4596.780928   -5491.049349       0.000000       0.000000       0.000000   25044.390279  -31615.764066    1080.324438 
 4880000     307.004724   -4639.076629   -5555.114518       0.000000       0.000000       0.000000   24945.759988  -31617.012945    1116.138440 
 4890000     307.896779   -4592.768838   -5511.468432       0.000000       0.000000       0.000000   25033.886206  -31615.914840    1070.560203 
 4900000     312.685304   -4540.596995   -5473.584546       0.000000       0.000000       0.000000   25153.383175  -31612.565622     985.597902 
 4910000     309.859105   -4647.298263   -5571.853029       0.000000       0.000000       0.000000   24901.247378  -31615.452016    1142.351610 
 4920000     308.171886   -4588.216676   -5507.737133       0.000000       0.000000       0.000000   25018.783625  -31613.418260    1086.897502 
 4930000     302.293285   -4605.391469   -5507.371411       0.000000       0.000000       0.000000   25022.606816  -31614.817521    1084.839294 
 4940000     291.426851   -4678.211793   -5547.768568       0.000000       0.000000       0.000000   25065.950734  -31620.469951    1006.750649 
 4950000     285.806358   -4642.773497   -5495.559896       0.000000       0.000000       0.000000   25041.889542  -31613.808159    1076.358721 
 4960000     296.223229   -4605.529368   -5489.397531       0.000000       0.000000       0.000000   25048.061374  -31614.100696    1076.641792 
 4970000     292.707689   -4709.909488   -5583.288017       0.000000       0.000000       0.000000   24905.970219  -31615.975491    1126.717255 
 4980000     298.021783   -4633.899305   -5523.133977       0.000000       0.000000       0.000000   24968.088421  -31617.790855    1126.568457 
 4990000     292.012015   -4638.356091   -5509.658873       0.000000       0.000000       0.000000   25022.554023  -31616.861071    1084.648174 
 5000000     308.187261   -4621.416999   -5540.983331       0.000000       0.000000       0.000000   24939.097367  -31617.353180    1137.272482 
Loop time of 9745.91 on 8 procs for 5000000 steps with 1503 atoms

Performance: 44.326 ns/day, 0.541 hours/ns, 513.036 timesteps/s
99.3% CPU use with 8 MPI tasks x 1 OpenMP threads

MPI task timing breakdown:
Section |  min time  |  avg time  |  max time  |%varavg| %total
---------------------------------------------------------------
Pair    | 4871.2     | 4889.8     | 4928.5     |  25.7 | 50.17
Bond    | 1.272      | 1.4643     | 1.7085     |  11.4 |  0.02
Kspace  | 2597.5     | 2634.7     | 2652.6     |  32.3 | 27.03
Neigh   | 352.75     | 352.95     | 353.1      |   0.6 |  3.62
Comm    | 448.58     | 455.3      | 467.79     |  25.7 |  4.67
Output  | 2.0002     | 2.4603     | 2.6965     |  12.9 |  0.03
Modify  | 1332.1     | 1376.1     | 1383.5     |  44.9 | 14.12
Other   |            | 33.15      |            |       |  0.34

Nlocal:    187.875 ave 199 max 172 min
Histogram: 1 0 1 0 0 2 1 0 2 1
Nghost:    4623.38 ave 4671 max 4563 min
Histogram: 1 1 1 1 0 0 0 1 0 3
Neighs:    67979.5 ave 71624 max 61006 min
Histogram: 1 0 0 1 0 0 1 3 0 2

Total # of neighbors = 543836
Ave neighs/atom = 361.834
Ave special neighs/atom = 2
Neighbor list builds = 217093
Dangerous builds = 0
Total wall time: 3:15:13
