LAMMPS (3 Mar 2020)
  using 1 OpenMP thread(s) per MPI task
#CXE2
variable    lambda1  index   0.00922
variable    lambda2  index   0.04794
variable    lambda3  index   0.11505
variable    lambda4  index   0.20634
variable    lambda5  index   0.31608
variable    lambda6  index   0.43738
variable    lambda7  index   0.56262
variable    lambda8  index   0.68392
variable    lambda9  index   0.79366
variable    lambda10  index   0.88495
variable    lambda11  index   0.95206
variable    lambda12  index   0.99078

variable    lambda00  equal   ${lambda8}
variable    lambda00  equal   0.68392
variable    q10 equal -0.8476*v_lambda00
variable    q20 equal  0.4238*v_lambda00
variable    lambda01  equal   (v_lambda00-0.002)
variable    q11 equal -0.8476*v_lambda01
variable    q21 equal  0.4238*v_lambda01
variable    lambda02  equal   (v_lambda00+0.002)
variable    q12 equal -0.8476*v_lambda02
variable    q22 equal  0.4238*v_lambda02

atom_style	full
units		real
dimension	3
boundary	p p p
bond_style     	harmonic
angle_style    	harmonic

pair_style      hybrid     lj/cut/coul/long 10.0     lj/cut/coul/long/soft 1 0.5 10.0 10.0
pair_modify     shift yes mix geometric

kspace_style   	pppm 1e-5

read_data   lmp.data
  orthogonal box = (0 0 0) to (24 24 24)
  2 by 2 by 2 MPI processor grid
  reading atoms ...
  1503 atoms
  scanning bonds ...
  2 = max bonds/atom
  scanning angles ...
  1 = max angles/atom
  reading bonds ...
  1002 bonds
  reading angles ...
  501 angles
  2 = max # of 1-2 neighbors
  1 = max # of 1-3 neighbors
  1 = max # of 1-4 neighbors
  2 = max # of special neighbors
  special bonds CPU = 0.000939604 secs
  read_data CPU = 0.0125871 secs
include     lmp.setting
# ~~~~~BONDS~~~~~
# bond_coeff type k(kcal/mol/ang**2)  r0 (ang)
bond_coeff  1  600.000  1.000
bond_coeff  2  600.000  1.000

# ~~~~~ANGLES~~~~~
# angle_coeff type k(kcal/mol/rad**2)  theta_0 (degrees)
angle_coeff  1   75.000 109.470
angle_coeff  2   75.000 109.470

set         type 3 charge ${q10}
set         type 3 charge -0.579690592
  1 settings made for charge
set         type 4 charge ${q20}
set         type 4 charge 0.289845296
  2 settings made for charge

pair_coeff  1   1   lj/cut/coul/long   0.1553500  3.16600
pair_coeff  2   2   lj/cut/coul/long   0.0000000  1.00000
pair_coeff  3   3   lj/cut/coul/long   0.1553500  3.16600
pair_coeff  4   4   lj/cut/coul/long   0.0000000  1.00000

pair_coeff  1   3   lj/cut/coul/long/soft  0.1553500  3.16600  ${lambda00}
pair_coeff  1   3   lj/cut/coul/long/soft  0.1553500  3.16600  0.68392
pair_coeff  2   3   lj/cut/coul/long/soft  0.0000000  1.00000  ${lambda00}
pair_coeff  2   3   lj/cut/coul/long/soft  0.0000000  1.00000  0.68392

pair_coeff  1   4   lj/cut/coul/long/soft  0.0000000  1.00000  ${lambda00}
pair_coeff  1   4   lj/cut/coul/long/soft  0.0000000  1.00000  0.68392
pair_coeff  2   4   lj/cut/coul/long/soft  0.0000000  1.00000  ${lambda00}
pair_coeff  2   4   lj/cut/coul/long/soft  0.0000000  1.00000  0.68392

fix 		fShakeSPCE all shake 0.0001 20 0 b 1 2 a 1 2
  0 = # of size 2 clusters
  0 = # of size 3 clusters
  0 = # of size 4 clusters
  501 = # of frozen angles
  find clusters CPU = 0.000394639 secs

timestep    1.0
run_style   verlet

fix         fxnpt all npt temp 300.0 300.0 100.0 iso 1.0 1.0 1000

thermo_style    custom step etotal pe ecoul elong evdwl
thermo_modify   format float %20.12f
thermo		1

rerun ${lambda00}.lammpstrj dump x y z box yes
rerun 0.68392.lammpstrj dump x y z box yes
PPPM initialization ...
  using 12-bit tables for long-range coulomb (src/kspace.cpp:332)
  G vector (1/distance) = 0.315108
  grid = 24 24 24
  stencil order = 5
  estimated absolute RMS force accuracy = 0.00171202
  estimated relative force accuracy = 5.1557e-06
  using double precision MKL FFT
  3d grid and FFT values/proc = 6859 1728
Neighbor list info ...
  update every 1 steps, delay 10 steps, check yes
  max neighbors/atom: 2000, page size: 100000
  master list distance cutoff = 12
  ghost atom cutoff = 12
  binsize = 6, bins = 4 4 4
  3 neighbor lists, perpetual/occasional/extra = 3 0 0
  (1) pair lj/cut/coul/long, perpetual, skip from (3)
      attributes: half, newton on
      pair build: skip
      stencil: none
      bin: none
  (2) pair lj/cut/coul/long/soft, perpetual, skip from (3)
      attributes: half, newton on
      pair build: skip
      stencil: none
      bin: none
  (3) neighbor class addition, perpetual
      attributes: half, newton on
      pair build: half/bin/newton
      stencil: half/bin/3d/newton
      bin: standard
Per MPI rank memory allocation (min/avg/max) = 9.727 | 9.731 | 9.735 Mbytes
Step TotEng PotEng E_coul E_long E_vdwl 
       0   -5519.967033796769   -5519.967033796769   25199.035478340051  -31807.447857066320    1088.445344929496 
    1000   -5542.502653213254   -5542.502653213254   25151.695438273622  -31811.535375467698    1117.337283980823 
    2000   -5525.494228078369   -5525.494228078369   25165.184803039287  -31809.698155652757    1119.019124535098 
    3000   -5512.095009355551   -5512.095009355551   25179.398631174317  -31809.442991062322    1117.949350532451 
    4000   -5509.342626731323   -5509.342626731323   25143.999147770475  -31809.432846706364    1156.091072204567 
    5000   -5511.536677071901   -5511.536677071901   25218.171514693193  -31807.154840232481    1077.446648467391 
    6000   -5504.947527300214   -5504.947527300214   25239.106982425081  -31808.414192751603    1064.359683026310 
    7000   -5564.591408016906   -5564.591408016906   25101.919237803297  -31810.871859655974    1144.361213835773 
    8000   -5536.790785716872   -5536.790785716872   25252.205762370078  -31807.785195097473    1018.788647010519 
    9000   -5529.858415275696   -5529.858415275696   25144.519419204651  -31809.901393691653    1135.523559211306 
   10000   -5556.878217637590   -5556.878217637590   25152.838420456701  -31809.272494022352    1099.555855928064 
   11000   -5549.086362224007   -5549.086362224007   25142.203085860041  -31812.509931266093    1121.220483182045 
   12000   -5465.286068749072   -5465.286068749072   25235.461154235090  -31810.215539622899    1109.468316638731 
   13000   -5526.080163104536   -5526.080163104536   25223.306283481314  -31811.064566182606    1061.678119596753 
   14000   -5545.812112238884   -5545.812112238884   25183.905091084423  -31811.379213970613    1081.662010647301 
   15000   -5512.145861220979   -5512.145861220979   25118.715203410036  -31807.541061930875    1176.679997299857 
   16000   -5512.507383048174   -5512.507383048174   25263.712631770657  -31810.966877835719    1034.746863016884 
   17000   -5497.532575480829   -5497.532575480829   25075.630788031209  -31810.200415897183    1237.037052385147 
   18000   -5562.926390157016   -5562.926390157016   25171.010188425917  -31812.606356725642    1078.669778142711 
   19000   -5460.705667577706   -5460.705667577706   25284.586654952378  -31807.776785086782    1062.484462556701 
   20000   -5480.997752494768   -5480.997752494768   25235.412985357187  -31807.166913397989    1090.756175546038 
   21000   -5454.660288894283   -5454.660288894283   25297.684248220718  -31805.470677123027    1053.126140008025 
   22000   -5509.126754291829   -5509.126754291829   25154.039601306758  -31805.009531207961    1141.843175609374 
   23000   -5537.492087142276   -5537.492087142276   25131.615095386020  -31809.690660499906    1140.583477971610 
   24000   -5518.691561591619   -5518.691561591619   25142.556660117567  -31809.144072703679    1147.895850994492 
   25000   -5527.510319867710   -5527.510319867710   25123.503782673863  -31808.028545645080    1157.014443103501 
   26000   -5484.265113331447   -5484.265113331447   25283.299456307323  -31806.355511204132    1038.790941565362 
   27000   -5590.591185281792   -5590.591185281792   25133.810795605652  -31809.003887601426    1084.601906713980 
   28000   -5507.738249021510   -5507.738249021510   25161.003007358668  -31807.002351198214    1138.261094818033 
   29000   -5530.468854846109   -5530.468854846109   25170.404852116983  -31810.113838158886    1109.240131195793 
   30000   -5548.136439516453   -5548.136439516453   25253.017459833936  -31812.724699658720    1011.570800308333 
   31000   -5553.652011926839   -5553.652011926839   25152.769941831226  -31810.318354552284    1103.896400794221 
   32000   -5523.651127877485   -5523.651127877485   25216.294987760826  -31809.536361398848    1069.590245760535 
   33000   -5475.142815431598   -5475.142815431598   25316.979575354704  -31808.776863828502    1016.654473042200 
   34000   -5560.651966160400   -5560.651966160400   25147.566082320227  -31810.476470872603    1102.258422391973 
   35000   -5520.155933996724   -5520.155933996724   25166.779382014669  -31812.592984954146    1125.657668942747 
   36000   -5521.292919853797   -5521.292919853797   25208.163681787042  -31803.661567441930    1074.204965801094 
   37000   -5527.941520836132   -5527.941520836132   25203.535733667479  -31812.283413175941    1080.806158672328 
   38000   -5527.608003030658   -5527.608003030658   25258.795025042797  -31804.930445223483    1018.527417150032 
   39000   -5516.907661922127   -5516.907661922127   25205.507224587036  -31810.368710640792    1087.953824131625 
   40000   -5503.107787900972   -5503.107787900972   25281.512646717179  -31810.352053457929    1025.731618839779 
   41000   -5536.798103322330   -5536.798103322330   25156.743712003336  -31809.158563702240    1115.616748376575 
   42000   -5555.185186768038   -5555.185186768038   25200.986855706662  -31810.540517376241    1054.368474901546 
   43000   -5554.127565853178   -5554.127565853178   25188.635737046538  -31807.864521239400    1065.101218339685 
   44000   -5540.563353275043   -5540.563353275043   25087.700206682050  -31812.307694594856    1184.044134637765 
   45000   -5510.832018212466   -5510.832018212466   25192.555143652688  -31810.701186364538    1107.314024499385 
   46000   -5518.655951776840   -5518.655951776840   25179.024126108168  -31811.997988754720    1114.317910869710 
   47000   -5563.141893356144   -5563.141893356144   25121.507342975769  -31810.394204704953    1125.744968373039 
   48000   -5536.097934443304   -5536.097934443304   25193.978922201088  -31801.312915090006    1071.236058445619 
   49000   -5572.778368319981   -5572.778368319981   25127.552738520295  -31811.617869693513    1111.286762853237 
   50000   -5557.503271792342   -5557.503271792342   25133.129545160489  -31808.042454369672    1117.409637416842 
   51000   -5540.051969837263   -5540.051969837263   25153.099249710260  -31809.583178581779    1116.431959034253 
   52000   -5525.823957543787   -5525.823957543787   25172.566929022694  -31808.387264781504    1109.996378215028 
   53000   -5543.819460936669   -5543.819460936669   25155.342099047208  -31810.047188633940    1110.885628650065 
   54000   -5547.648476087183   -5547.648476087183   25157.571680515073  -31813.642959246237    1108.422802643979 
   55000   -5541.558669524871   -5541.558669524871   25159.830094952820  -31810.348628104763    1108.959863627071 
   56000   -5502.709483918024   -5502.709483918024   25271.576996918178  -31807.193957981668    1032.907477145463 
   57000   -5534.849668800158   -5534.849668800158   25198.929075582895  -31812.130657260550    1078.351912877500 
   58000   -5585.212226671963   -5585.212226671963   25062.155689496096  -31811.113199413743    1163.745283245686 
   59000   -5517.338298387411   -5517.338298387411   25153.403712859596  -31808.852767164113    1138.110755917103 
   60000   -5547.222255355227   -5547.222255355227   25166.078129488913  -31807.896039098257    1094.595654254119 
   61000   -5539.575061273794   -5539.575061273794   25104.009276195018  -31811.678369486763    1168.094032017947 
   62000   -5533.662988598757   -5533.662988598757   25160.940213689250  -31811.164881548226    1116.561679260222 
   63000   -5567.120682512636   -5567.120682512636   25138.355998013692  -31812.047603719922    1106.570923193591 
   64000   -5513.703045770108   -5513.703045770108   25182.049447019373  -31811.680263214050    1115.927770424565 
   65000   -5571.188194349405   -5571.188194349405   25141.201349965817  -31811.554339755716    1099.164795440494 
   66000   -5500.323496744855   -5500.323496744855   25228.794405353903  -31810.793259221486    1081.675357122729 
   67000   -5525.844110227830   -5525.844110227830   25137.600707420243  -31808.849401382071    1145.404583733998 
   68000   -5499.799121998421   -5499.799121998421   25171.815677102953  -31809.277020108850    1137.662221007474 
   69000   -5570.084059115998   -5570.084059115998   25176.018967245411  -31810.533735775261    1064.430709413856 
   70000   -5510.972594024795   -5510.972594024795   25231.268341732775  -31807.576113384013    1065.335177626443 
   71000   -5542.923044340208   -5542.923044340208   25156.258381163228  -31805.055911526859    1105.874486023423 
   72000   -5492.769386795044   -5492.769386795044   25197.300389655768  -31811.438165668344    1121.368389217535 
   73000   -5513.393076280721   -5513.393076280721   25198.198425492468  -31810.433567471402    1098.842065698215 
   74000   -5526.983191951080   -5526.983191951080   25211.153328881446  -31809.812053578429    1071.675532745900 
   75000   -5558.849187878117   -5558.849187878117   25134.689861453659  -31809.635825478308    1116.096776146531 
   76000   -5583.530876034882   -5583.530876034882   25154.295361941928  -31812.954669725343    1075.128431748533 
   77000   -5557.671267092410   -5557.671267092410   25163.652648108909  -31810.572592703225    1089.248677501904 
   78000   -5488.225296039982   -5488.225296039982   25213.445847768526  -31807.804901303087    1106.133757494580 
   79000   -5538.518892220083   -5538.518892220083   25120.989445074869  -31806.273826772387    1146.765489477432 
   80000   -5515.062961853644   -5515.062961853644   25147.729930582682  -31808.776190074637    1145.983297638311 
   81000   -5547.076363683835   -5547.076363683835   25186.529873722800  -31810.961993406090    1077.355755999455 
   82000   -5520.958471003356   -5520.958471003356   25236.936401354069  -31809.181933198412    1051.287060840985 
   83000   -5561.823636202069   -5561.823636202069   25161.989673235483  -31811.868627750260    1088.055318312706 
   84000   -5517.692604141368   -5517.692604141368   25181.609402286042  -31808.028449928694    1108.726443501286 
   85000   -5590.630331456156   -5590.630331456156   25067.930121368550  -31807.336130287167    1148.775677462461 
   86000   -5512.252544242870   -5512.252544242870   25172.298056420030  -31805.248319018392    1120.697718355494 
   87000   -5516.368940383665   -5516.368940383665   25203.778047245898  -31805.841353936328    1085.694366306769 
   88000   -5523.003396122887   -5523.003396122887   25209.918686429912  -31810.998951769809    1078.076869217010 
   89000   -5559.819484920365   -5559.819484920365   25126.545366923383  -31809.597233521752    1123.232381678006 
   90000   -5626.693421805219   -5626.693421805219   25056.246958447580  -31810.551332434632    1127.610952181828 
   91000   -5602.389507053966   -5602.389507053966   25023.348306437423  -31808.128264512441    1182.390451021051 
   92000   -5529.226305569649   -5529.226305569649   25154.493096615755  -31811.115185453160    1127.395783267747 
   93000   -5562.173742625575   -5562.173742625575   25146.976620104477  -31811.103346111522    1101.952983381475 
   94000   -5521.242206779494   -5521.242206779494   25246.553088877612  -31813.728038691279    1045.932743034175 
   95000   -5588.631526346711   -5588.631526346711   25091.578166347823  -31808.363936300681    1128.154243606143 
   96000   -5542.410841724286   -5542.410841724286   25088.107377256139  -31808.911043270196    1178.392824289770 
   97000   -5507.272381295308   -5507.272381295308   25255.394865890812  -31804.240469878008    1041.573222691884 
   98000   -5552.089626377434   -5552.089626377434   25186.829424669435  -31810.218299719818    1071.299248672946 
   99000   -5518.779452979721   -5518.779452979721   25193.650025873758  -31813.345344657824    1100.915865804346 
  100000   -5496.735827010907   -5496.735827010907   25233.519150400149  -31807.811485456830    1077.556508045774 
  101000   -5553.603034810116   -5553.603034810116   25089.413917516264  -31807.930206235422    1164.913253909039 
  102000   -5498.087617580797   -5498.087617580797   25196.670884013340  -31809.459175360433    1114.700673766296 
  103000   -5530.034824823309   -5530.034824823309   25160.601768458779  -31807.702101611409    1117.065508329316 
  104000   -5572.861876601251   -5572.861876601251   25064.080606118197  -31808.864244777880    1171.921762058429 
  105000   -5543.410679178316   -5543.410679178316   25188.829690117302  -31807.360287873053    1075.119918577433 
  106000   -5563.955194937018   -5563.955194937018   25143.520448538417  -31811.527142973951    1104.051499498517 
  107000   -5536.032344102856   -5536.032344102856   25203.972391424588  -31814.184645846526    1074.179910319076 
  108000   -5544.164226416291   -5544.164226416291   25171.929186667148  -31810.655744856813    1094.562331773372 
  109000   -5508.621925503121   -5508.621925503121   25167.840637166162  -31809.956988025999    1133.494425356712 
  110000   -5530.980558606108   -5530.980558606108   25048.120887244379  -31808.814350869339    1229.712905018851 
  111000   -5563.558998661043   -5563.558998661043   25133.619586026532  -31809.775994310796    1112.597409623218 
  112000   -5546.429851501780   -5546.429851501780   25159.156164499356  -31807.734687789773    1102.148671788638 
  113000   -5472.782389902546   -5472.782389902546   25276.726502962912  -31808.042257518886    1058.533364653432 
  114000   -5514.940251241034   -5514.940251241034   25244.215037904592  -31807.394034181947    1048.238745036315 
  115000   -5558.231483757583   -5558.231483757583   25160.421775877978  -31810.782180836002    1092.128921200441 
  116000   -5497.778656347124   -5497.778656347124   25223.955756772943  -31805.758189415228    1084.023776295160 
  117000   -5593.234926074336   -5593.234926074336   25097.475764214385  -31806.072868700612    1115.362178411892 
  118000   -5518.913394981573   -5518.913394981573   25181.568346850043  -31807.121062056467    1106.639320224857 
  119000   -5581.879772026696   -5581.879772026696   25081.608973088827  -31809.106128637253    1145.617383521734 
  120000   -5532.288260605201   -5532.288260605201   25138.966037768361  -31808.511081144643    1137.256782771082 
  121000   -5555.172281576000   -5555.172281576000   25090.000426866347  -31810.144414338385    1164.971705896032 
  122000   -5562.993624542611   -5562.993624542611   25184.889455124510  -31808.469055374575    1060.585975707450 
  123000   -5532.006996661927   -5532.006996661927   25175.235044714835  -31809.323752939184    1102.081711562426 
  124000   -5492.408003825210   -5492.408003825210   25213.191316205695  -31807.382756684281    1101.783436653382 
  125000   -5514.092598007664   -5514.092598007664   25160.278363867983  -31808.655398058894    1134.284436183251 
  126000   -5511.091398564149   -5511.091398564149   25221.258251471096  -31807.918229972405    1075.568579937160 
  127000   -5545.030124170822   -5545.030124170822   25091.546563895110  -31808.855917189161    1172.279229123227 
  128000   -5469.914520558599   -5469.914520558599   25220.398064760302  -31808.944093795570    1118.631508476665 
  129000   -5541.451491364027   -5541.451491364027   25174.533608392390  -31805.226350916506    1089.241251160085 
  130000   -5543.909717305625   -5543.909717305625   25184.776223726396  -31810.972185135171    1082.286244103150 
  131000   -5557.657965113351   -5557.657965113351   25155.208064319930  -31809.201265532607    1096.335236099325 
  132000   -5475.597769944565   -5475.597769944565   25239.310922430574  -31803.066067439060    1088.157375063921 
  133000   -5538.688313492818   -5538.688313492818   25169.914069833088  -31810.996631308797    1102.394247982887 
  134000   -5487.529880916922   -5487.529880916922   25219.830958151470  -31802.240950830146    1094.880111761752 
  135000   -5475.561255696382   -5475.561255696382   25314.734811234237  -31808.511625521773    1018.215558591150 
  136000   -5451.550760176960   -5451.550760176960   25312.187978825015  -31809.666168625688    1045.927429623707 
  137000   -5489.572835376581   -5489.572835376581   25221.921759035176  -31803.971587090447    1092.476992678691 
  138000   -5495.530852166190   -5495.530852166190   25263.392039454131  -31808.018790628823    1049.095899008498 
  139000   -5484.748445006811   -5484.748445006811   25293.170175320687  -31810.808958586385    1032.890338258890 
  140000   -5449.718127263532   -5449.718127263532   25296.639890592065  -31805.631250563332    1059.273232707739 
  141000   -5536.769941284987   -5536.769941284987   25168.843086329620  -31810.339739062099    1104.726711447492 
  142000   -5505.340580390417   -5505.340580390417   25237.333054678485  -31807.873521449881    1065.199886380977 
  143000   -5514.577221298874   -5514.577221298874   25204.362691815390  -31808.326573024922    1089.386659910660 
  144000   -5528.642451760952   -5528.642451760952   25209.488112176699  -31810.666222660973    1072.535658723319 
  145000   -5455.279802244400   -5455.279802244400   25218.165050237949  -31805.784942611059    1132.340090128711 
  146000   -5432.729391977591   -5432.729391977591   25337.081851749786  -31812.457056012034    1042.645812284663 
  147000   -5539.466213022613   -5539.466213022613   25190.306756451359  -31805.598672145858    1075.825702671884 
  148000   -5430.211620985261   -5430.211620985261   25303.322104696810  -31808.567068358912    1075.033342676840 
  149000   -5516.059874125400   -5516.059874125400   25214.031195346528  -31808.659773886815    1078.568704414883 
  150000   -5565.697461364518   -5565.697461364518   25115.408158189697  -31809.082696324633    1127.977076770417 
  151000   -5533.071697067749   -5533.071697067749   25189.634681702246  -31810.422212707908    1087.715833937911 
  152000   -5528.616649281805   -5528.616649281805   25230.528115477762  -31811.186443126073    1052.041678366511 
  153000   -5512.983923881849   -5512.983923881849   25196.131709996593  -31811.058458301501    1101.942824423061 
  154000   -5514.952673701733   -5514.952673701733   25242.376833876551  -31809.794647646515    1052.465140068226 
  155000   -5478.226764096013   -5478.226764096013   25305.515575075857  -31806.716546577543    1022.974207405674 
  156000   -5538.898180650285   -5538.898180650285   25150.849128724472  -31809.979162021340    1120.231852646587 
  157000   -5522.237123601386   -5522.237123601386   25145.438227677296  -31810.368615539468    1142.693264260793 
  158000   -5590.599078676689   -5590.599078676689   25136.662850864741  -31812.580778060612    1085.318848519180 
  159000   -5530.376661349310   -5530.376661349310   25182.965916457142  -31811.202908013980    1097.860330207529 
  160000   -5524.790151250283   -5524.790151250283   25133.000133846937  -31805.465921674830    1147.675636577610 
  161000   -5543.642569095740   -5543.642569095740   25189.325382216557  -31804.180817436692    1071.212866124398 
  162000   -5555.584346672265   -5555.584346672265   25142.947823986360  -31812.823505377368    1114.291334718738 
  163000   -5468.645680824364   -5468.645680824364   25233.548652561494  -31807.009272182378    1104.814938796520 
  164000   -5552.676299340194   -5552.676299340194   25094.362487193906  -31809.135456101696    1162.096669567597 
  165000   -5553.020247347424   -5553.020247347424   25149.278271382089  -31807.504005328650    1105.205486599139 
  166000   -5547.004917896749   -5547.004917896749   25166.201623237299  -31810.645746781604    1097.439205647553 
  167000   -5509.508746593467   -5509.508746593467   25220.685292324917  -31809.251713938149    1079.057675019762 
  168000   -5510.897674005882   -5510.897674005882   25253.243862413743  -31808.576119958048    1044.434583538420 
  169000   -5555.528776125302   -5555.528776125302   25179.541432851132  -31809.426772853738    1074.356563877305 
  170000   -5518.038631095089   -5518.038631095089   25166.798655715800  -31805.564175387110    1120.726888576221 
  171000   -5527.582054630722   -5527.582054630722   25195.234438320778  -31811.653711994113    1088.837219042616 
  172000   -5558.202976798646   -5558.202976798646   25145.301710907559  -31812.628493615717    1109.123805909509 
  173000   -5511.851913384900   -5511.851913384900   25262.484123220176  -31802.470762466201    1028.134725861123 
  174000   -5589.904132930398   -5589.904132930398   25127.471244261287  -31808.995942225200    1091.620565033513 
  175000   -5574.039034021749   -5574.039034021749   25075.308424907329  -31811.799514386759    1162.452055457681 
  176000   -5568.998716020156   -5568.998716020156   25129.391278653668  -31810.212659928860    1111.822665255040 
  177000   -5496.643189349892   -5496.643189349892   25232.975804212474  -31809.465829063109    1079.846835500741 
  178000   -5507.354577291993   -5507.354577291993   25227.854153451091  -31806.436826894122    1071.228096151039 
  179000   -5434.376359623297   -5434.376359623297   25281.599420845043  -31806.681524618827    1090.705744150484 
  180000   -5536.633331037974   -5536.633331037974   25123.408953018308  -31806.279247494516    1146.236963438236 
  181000   -5515.211015143952   -5515.211015143952   25125.222187873340  -31804.927207513680    1164.494004496386 
  182000   -5582.927914204352   -5582.927914204352   25161.399122442021  -31811.290274906001    1066.963238259627 
  183000   -5447.720573262250   -5447.720573262250   25252.249491403789  -31807.376711640456    1107.406646974419 
  184000   -5488.224171696264   -5488.224171696264   25287.969324626851  -31809.536918541231    1033.343422218121 
  185000   -5493.776275836892   -5493.776275836892   25188.646282925460  -31803.716804499880    1121.294245737528 
  186000   -5519.463994039357   -5519.463994039357   25205.437472431811  -31811.033540259454    1086.132073788282 
  187000   -5516.872255107810   -5516.872255107810   25256.474977595753  -31806.920031729900    1033.572799026340 
  188000   -5500.786525935371   -5500.786525935371   25209.915569216639  -31808.503010928340    1097.800915776329 
  189000   -5479.074659119655   -5479.074659119655   25207.312459705696  -31810.863008409149    1124.475889583799 
  190000   -5453.231352286515   -5453.231352286515   25288.110934576634  -31807.956255774719    1066.613968911574 
  191000   -5476.996709568699   -5476.996709568699   25258.911898498882  -31809.719548374345    1073.810940306762 
  192000   -5480.980938483353   -5480.980938483353   25311.417979706010  -31807.978466333800    1015.579548144437 
  193000   -5503.704079373518   -5503.704079373518   25243.840472878219  -31810.818931383841    1063.274379132104 
  194000   -5547.817889434500   -5547.817889434500   25133.115389221552  -31809.912136705472    1128.978858049417 
  195000   -5541.173636483694   -5541.173636483694   25177.355940605674  -31812.324449979929    1093.794872890559 
  196000   -5513.830486946852   -5513.830486946852   25239.537131477107  -31809.789347132075    1056.421728708115 
  197000   -5540.740888803761   -5540.740888803761   25172.387684378758  -31811.572772885422    1098.444199702905 
  198000   -5579.726496257612   -5579.726496257612   25127.697565108334  -31808.381359956926    1100.957298590978 
  199000   -5531.351527197108   -5531.351527197108   25198.209689165134  -31812.425587507332    1082.864371145090 
  200000   -5555.134579235400   -5555.134579235400   25174.344850343645  -31810.692321658800    1081.212892079758 
  201000   -5569.732464440309   -5569.732464440309   25188.619951557281  -31811.394374364336    1053.041958366748 
  202000   -5471.172156242279   -5471.172156242279   25347.553078581732  -31806.926221416546     988.200986592536 
  203000   -5544.406714512112   -5544.406714512112   25123.183560227855  -31809.167926566999    1141.577651827031 
  204000   -5566.116186391686   -5566.116186391686   25164.109675533680  -31808.009814630168    1077.783952704803 
  205000   -5519.076723495535   -5519.076723495535   25172.417558882920  -31808.889168309819    1117.394885931364 
  206000   -5525.743969392810   -5525.743969392810   25194.168920286742  -31808.770343022890    1088.857453343340 
  207000   -5552.970519285096   -5552.970519285096   25126.820419254662  -31808.802958398905    1129.012019859148 
  208000   -5498.860897047423   -5498.860897047423   25216.299740984792  -31809.631697991332    1094.471059959115 
  209000   -5491.704300877318   -5491.704300877318   25237.990836127003  -31806.410714985977    1076.715577981658 
  210000   -5547.727483601680   -5547.727483601680   25166.843422979604  -31810.462591551284    1095.891684970002 
  211000   -5500.900577379591   -5500.900577379591   25244.805566492283  -31806.604773702820    1060.898629830942 
  212000   -5503.850730317965   -5503.850730317965   25228.657386707568  -31811.093606939583    1078.585489914054 
  213000   -5565.646873710437   -5565.646873710437   25154.077775733636  -31810.206171555481    1090.481522111406 
  214000   -5534.898434753199   -5534.898434753199   25182.941648387481  -31811.115967698875    1093.275884558192 
  215000   -5518.793305442934   -5518.793305442934   25269.400119085782  -31813.349273029013    1025.155848500296 
  216000   -5550.606218689027   -5550.606218689027   25102.255051684988  -31808.802841649682    1155.941571275669 
  217000   -5544.863035413058   -5544.863035413058   25144.952792581294  -31807.248951973070    1117.433123978715 
  218000   -5521.426918023979   -5521.426918023979   25143.037161297594  -31806.041818758305    1141.577739436736 
  219000   -5503.248327545469   -5503.248327545469   25171.556977408640  -31812.637992261261    1137.832687307153 
  220000   -5500.318249201067   -5500.318249201067   25257.639531933852  -31808.586351261110    1050.628570126189 
  221000   -5526.301393443242   -5526.301393443242   25167.742274657576  -31805.265790254034    1111.222122153216 
  222000   -5484.102087447503   -5484.102087447503   25282.150877595319  -31811.605475117762    1045.352510074941 
  223000   -5512.996997964870   -5512.996997964870   25245.805612368509  -31811.017212677787    1052.214602344410 
  224000   -5458.904375171478   -5458.904375171478   25267.039836766788  -31809.915036053731    1083.970824115469 
  225000   -5509.171329431236   -5509.171329431236   25183.351390100823  -31810.246267650924    1117.723548118867 
  226000   -5573.368069749496   -5573.368069749496   25150.336772275052  -31808.925331187005    1085.220489162466 
  227000   -5510.769728154690   -5510.769728154690   25260.634261077699  -31808.621475280615    1037.217486048224 
  228000   -5510.120537216186   -5510.120537216186   25221.535146492257  -31809.045165568154    1077.389481859713 
  229000   -5529.045257257807   -5529.045257257807   25132.789339893036  -31808.182008048381    1146.347410897540 
  230000   -5559.997415510235   -5559.997415510235   25120.927387974632  -31811.650431094495    1130.725627609624 
  231000   -5554.961835175305   -5554.961835175305   25212.228329163845  -31810.584903487641    1043.394739148486 
  232000   -5511.825190970721   -5511.825190970721   25234.018054981800  -31809.214752274038    1063.371506321520 
  233000   -5505.827520839513   -5505.827520839513   25198.933856860516  -31803.938259661169    1099.176881961140 
  234000   -5536.826449792516   -5536.826449792516   25118.836957929336  -31809.770512565749    1154.107104843899 
  235000   -5525.917957134687   -5525.917957134687   25140.784069557620  -31807.101691905125    1140.399665212820 
  236000   -5542.444983021014   -5542.444983021014   25133.554156171514  -31809.431779562739    1133.432640370211 
  237000   -5500.509005999458   -5500.509005999458   25206.198409031829  -31808.386930531338    1101.679515500050 
  238000   -5531.062683602671   -5531.062683602671   25249.470981563252  -31806.740558900845    1026.206893734924 
  239000   -5552.971137277640   -5552.971137277640   25203.684949458369  -31812.428908494749    1055.772821758741 
  240000   -5480.797614163945   -5480.797614163945   25187.422184870738  -31810.771384806656    1142.551585771971 
  241000   -5532.018367893379   -5532.018367893379   25186.160715186816  -31811.563715937933    1093.384632857741 
  242000   -5533.414478112642   -5533.414478112642   25183.268635747088  -31811.179264630573    1094.496150770845 
  243000   -5460.691154790307   -5460.691154790307   25274.217338139661  -31808.714568883664    1073.806075953698 
  244000   -5514.550309702285   -5514.550309702285   25243.268947849490  -31807.617962281580    1049.798704729803 
  245000   -5538.886383125282   -5538.886383125282   25178.942360055738  -31810.181184489986    1092.352441308968 
  246000   -5488.635326121734   -5488.635326121734   25210.715477416499  -31807.187833222943    1107.837029684707 
  247000   -5517.281939529159   -5517.281939529159   25206.305185408066  -31807.417441640195    1083.830316702968 
  248000   -5477.894340956154   -5477.894340956154   25310.633189581153  -31811.421088338477    1022.893557801170 
  249000   -5493.093062464755   -5493.093062464755   25268.504748062463  -31808.921720702499    1047.323910175279 
  250000   -5544.919405593701   -5544.919405593701   25129.996616110955  -31810.535427233601    1135.619405528942 
  251000   -5551.762254445392   -5551.762254445392   25137.325026615879  -31807.810659871146    1118.723378809874 
  252000   -5504.277623176244   -5504.277623176244   25247.428868974861  -31812.122638967747    1060.416146816644 
  253000   -5496.253346981644   -5496.253346981644   25208.165943798238  -31806.856933829597    1102.437643049719 
  254000   -5562.601900253339   -5562.601900253339   25214.098677637056  -31806.070173649354    1029.369595758958 
  255000   -5557.062394581371   -5557.062394581371   25171.202656619484  -31808.381484550493    1080.116433349640 
  256000   -5541.930122391565   -5541.930122391565   25167.215628207909  -31806.990456515763    1097.844705916286 
  257000   -5488.898017925305   -5488.898017925305   25204.332865152814  -31810.078628482850    1116.847745404727 
  258000   -5496.091457608134   -5496.091457608134   25304.100378109964  -31808.155798227406    1007.963962509311 
  259000   -5477.170103362547   -5477.170103362547   25192.796886613338  -31803.875161008218    1133.908171032338 
  260000   -5523.384775840543   -5523.384775840543   25261.782210929421  -31808.938392564927    1023.771405794967 
  261000   -5437.195903311127   -5437.195903311127   25302.062717665547  -31803.300096571074    1064.041475594405 
  262000   -5514.572914644934   -5514.572914644934   25228.026212316319  -31810.131098376325    1067.531971415077 
  263000   -5488.187554849406   -5488.187554849406   25227.806041696967  -31809.692673515285    1093.699076968914 
  264000   -5476.342551016209   -5476.342551016209   25287.312473030594  -31809.677710911234    1046.022686864431 
  265000   -5486.429793267307   -5486.429793267307   25238.173503465172  -31806.692159656508    1082.088862924028 
  266000   -5545.970284566414   -5545.970284566414   25176.613659454168  -31808.415330333220    1085.831386312637 
  267000   -5547.346003225339   -5547.346003225339   25131.566263601035  -31812.309719237663    1133.397452411288 
  268000   -5536.309605192535   -5536.309605192535   25126.370874768876  -31809.621291941781    1146.940811980371 
  269000   -5547.581282864834   -5547.581282864834   25246.725286812281  -31813.997048000580    1019.690478323463 
  270000   -5462.510357329440   -5462.510357329440   25309.839426481740  -31811.463088054315    1039.113304243128 
  271000   -5527.565669946303   -5527.565669946303   25207.492869269328  -31813.596333857931    1078.537794642302 
  272000   -5541.005321750406   -5541.005321750406   25220.759817313701  -31806.965480795301    1045.200341731186 
  273000   -5596.649743292859   -5596.649743292859   25035.685834609776  -31805.189165609030    1172.853587706390 
  274000   -5538.140642810649   -5538.140642810649   25119.724873143536  -31810.646996158481    1152.781480204299 
  275000   -5487.364699466787   -5487.364699466787   25257.553777240417  -31811.061825899349    1066.143349192149 
  276000   -5555.017344934615   -5555.017344934615   25117.575401450478  -31807.441814554390    1134.849068169302 
  277000   -5474.183097239264   -5474.183097239264   25310.721570522386  -31808.463007924438    1023.558340162787 
  278000   -5499.007815498870   -5499.007815498870   25251.708754301915  -31806.944507347576    1056.227937546789 
  279000   -5550.615266061366   -5550.615266061366   25173.437468333621  -31808.133916290702    1084.081181895719 
  280000   -5529.200207369551   -5529.200207369551   25147.487731130088  -31810.484015646456    1133.796077146816 
  281000   -5503.855110149158   -5503.855110149158   25287.052889062114  -31811.732238373781    1020.824239162508 
  282000   -5457.362468936848   -5457.362468936848   25333.794470137753  -31809.987766525071    1018.830827450474 
  283000   -5456.193081651119   -5456.193081651119   25351.199560804525  -31808.440624618550    1001.047982162898 
  284000   -5469.885729095953   -5469.885729095953   25239.673428287810  -31811.193628274315    1101.634470890550 
  285000   -5530.094176977556   -5530.094176977556   25130.041136746248  -31809.864184905618    1149.728871181810 
  286000   -5478.649247841400   -5478.649247841400   25274.573377897115  -31812.707106817987    1059.484481079473 
  287000   -5518.432980678044   -5518.432980678044   25201.354708999872  -31805.711936718795    1085.924247040879 
  288000   -5551.766459016599   -5551.766459016599   25145.859026057507  -31810.429756401743    1112.804271327636 
  289000   -5498.017965979187   -5498.017965979187   25267.073483233165  -31806.550028380549    1041.458579168202 
  290000   -5484.690587427514   -5484.690587427514   25224.476567240054  -31808.495043737519    1099.327889069947 
  291000   -5486.689355030419   -5486.689355030419   25243.596897752217  -31811.821078069424    1081.534825286790 
  292000   -5461.140417369468   -5461.140417369468   25223.555630386527  -31806.067798807337    1121.371751051343 
  293000   -5499.748278979267   -5499.748278979267   25166.313471323239  -31808.530940514636    1142.469190212135 
  294000   -5496.790205165384   -5496.790205165384   25275.913645828303  -31806.170074302234    1033.466223308544 
  295000   -5495.862353386321   -5495.862353386321   25209.191508632648  -31807.420964173984    1102.367102155016 
  296000   -5475.617812461252   -5475.617812461252   25254.732375466963  -31807.941914107501    1077.591726179284 
  297000   -5510.627163686058   -5510.627163686058   25161.129688365188  -31806.502510443086    1134.745658391838 
  298000   -5483.618447959507   -5483.618447959507   25231.623054060110  -31805.114121917581    1089.872619897970 
  299000   -5551.345614289512   -5551.345614289512   25166.709357453743  -31810.403066555875    1092.348094812616 
  300000   -5524.179486721066   -5524.179486721066   25123.245529458945  -31809.868819478837    1162.443803298822 
  301000   -5502.327818355014   -5502.327818355014   25290.440183378236  -31807.416372688895    1014.648370955651 
  302000   -5464.448302875866   -5464.448302875866   25279.606272338275  -31812.452543154475    1068.397967940336 
  303000   -5502.999755732882   -5502.999755732882   25266.966134016751  -31810.167263584288    1040.201373834657 
  304000   -5533.491630436027   -5533.491630436027   25160.687551979459  -31810.330618191754    1116.151435776269 
  305000   -5542.391666972475   -5542.391666972475   25172.879464003789  -31810.105074651365    1094.833943675105 
  306000   -5521.605410075677   -5521.605410075677   25176.985598402429  -31805.207755270956    1106.616746792848 
  307000   -5542.827001508249   -5542.827001508249   25165.586560393458  -31802.793290979975    1094.379729078271 
  308000   -5599.208299967202   -5599.208299967202   25115.602759267251  -31808.525564312218    1093.714505077768 
  309000   -5575.387746764187   -5575.387746764187   25056.792645544090  -31812.593227916816    1180.412835608541 
  310000   -5576.574219948652   -5576.574219948652   25121.446753442746  -31814.009713007679    1115.988739616282 
  311000   -5526.621510581859   -5526.621510581859   25150.291800564439  -31808.329702132727    1131.416390986430 
  312000   -5544.703167715958   -5544.703167715958   25172.895494763699  -31808.091611259759    1090.492948780103 
  313000   -5510.796232845023   -5510.796232845023   25164.753275749656  -31809.582376921077    1134.032868326397 
  314000   -5572.401848411460   -5572.401848411460   25148.483174126464  -31807.309759211406    1086.424736673483 
  315000   -5558.655844958732   -5558.655844958732   25128.503392458202  -31809.868112103199    1122.708874686263 
  316000   -5529.809355401358   -5529.809355401358   25236.231442024211  -31808.484245555774    1042.443448130209 
  317000   -5552.467654752094   -5552.467654752094   25171.212858911604  -31809.242640431468    1085.562126767772 
  318000   -5529.413702563528   -5529.413702563528   25222.417753067097  -31809.803301966196    1057.971846335571 
  319000   -5522.825320967084   -5522.825320967084   25153.370733727199  -31809.044365227317    1132.848310533032 
  320000   -5533.684219876104   -5533.684219876104   25151.633683400254  -31807.809929012361    1122.492025736000 
  321000   -5522.375080183218   -5522.375080183218   25215.306438211534  -31809.059382170148    1071.377863775395 
  322000   -5519.087732521511   -5519.087732521511   25203.984627118913  -31808.993524273952    1085.921164633524 
  323000   -5520.856296051101   -5520.856296051101   25201.791420934103  -31809.870651417503    1087.222934432296 
  324000   -5526.177190428141   -5526.177190428141   25217.588464138360  -31810.529518499352    1066.763863932847 
  325000   -5511.226824593472   -5511.226824593472   25184.810279255016  -31809.949063268072    1113.911959419580 
  326000   -5534.567396801525   -5534.567396801525   25192.656307828773  -31807.020260844205    1079.796556213901 
  327000   -5450.824820704958   -5450.824820704958   25282.687508898460  -31808.632433076335    1075.120103472920 
  328000   -5492.504798020556   -5492.504798020556   25270.023692820450  -31809.303136479262    1046.774645638254 
  329000   -5589.917895664632   -5589.917895664632   25142.264097570951  -31811.176700383112    1078.994707147532 
  330000   -5523.995492463979   -5523.995492463979   25161.283988136769  -31808.777540266830    1123.498059666083 
  331000   -5589.070294916928   -5589.070294916928   25114.874856648446  -31810.343047255785    1106.397895690416 
  332000   -5521.766385771414   -5521.766385771414   25209.330833559343  -31811.111604020996    1080.014384690241 
  333000   -5508.176088467997   -5508.176088467997   25164.392783961852  -31804.359962458664    1131.791090028815 
  334000   -5465.577081756357   -5465.577081756357   25288.494922837457  -31807.267169606515    1053.195165012702 
  335000   -5497.190121801032   -5497.190121801032   25204.233705912440  -31810.527126257479    1109.103298544009 
  336000   -5579.470362113072   -5579.470362113072   25054.425065928393  -31811.327183819601    1177.431755778138 
  337000   -5571.420880330428   -5571.420880330428   25109.197869624972  -31812.552775194701    1131.934025239304 
  338000   -5533.408484655549   -5533.408484655549   25169.074524052496  -31805.188289175749    1102.705280467702 
  339000   -5515.794499677566   -5515.794499677566   25234.855414245023  -31809.783970649791    1059.134056727200 
  340000   -5520.034248278735   -5520.034248278735   25206.161700584067  -31806.629944457640    1080.433995594844 
  341000   -5543.794741806105   -5543.794741806105   25175.106026528705  -31808.424726139976    1089.523957805165 
  342000   -5463.892880703435   -5463.892880703435   25240.247441246873  -31810.309164885752    1106.168842935443 
  343000   -5518.542772336667   -5518.542772336667   25249.933845485386  -31808.826922642049    1040.350304819997 
  344000   -5529.321732554436   -5529.321732554436   25138.080729953082  -31807.161392994207    1139.758930486690 
  345000   -5456.116346513652   -5456.116346513652   25239.190456070042  -31807.020080651691    1111.713278067996 
  346000   -5555.999817394411   -5555.999817394411   25111.231119328386  -31807.339186001736    1140.108249278943 
  347000   -5489.936146569653   -5489.936146569653   25184.322260958128  -31811.683006610270    1137.424599082488 
  348000   -5466.841253117811   -5466.841253117811   25243.484382722570  -31806.849241550110    1096.523605709733 
  349000   -5527.353169048602   -5527.353169048602   25197.613264785272  -31807.039900535856    1082.073466701983 
  350000   -5566.122312051473   -5566.122312051473   25114.504309415224  -31811.538871609147    1130.912250142450 
  351000   -5502.093355478326   -5502.093355478326   25170.183991144018  -31809.554138418251    1137.276791795907 
  352000   -5503.954207472027   -5503.954207472027   25144.551554097823  -31807.060217247617    1158.554455677764 
  353000   -5519.166135164745   -5519.166135164745   25222.206804885878  -31811.394454508449    1070.021514457826 
  354000   -5503.248465359346   -5503.248465359346   25206.028128838152  -31812.542379559382    1103.265785361884 
  355000   -5493.647445060778   -5493.647445060778   25279.444454517343  -31810.554592125758    1037.462692547635 
  356000   -5551.273112546351   -5551.273112546351   25100.548480942900  -31814.832824544268    1163.011231055018 
  357000   -5563.452325297269   -5563.452325297269   25156.128937101079  -31812.032811184181    1092.451548785834 
  358000   -5471.330073868481   -5471.330073868481   25275.794145733857  -31809.791594103470    1062.667374501133 
  359000   -5545.199971061051   -5545.199971061051   25185.976358890988  -31810.189149358393    1079.012819406353 
  360000   -5477.394895669375   -5477.394895669375   25278.536184523269  -31806.731008882442    1050.799928689792 
  361000   -5484.092478962975   -5484.092478962975   25247.205249261297  -31806.954980723662    1075.657252499394 
  362000   -5516.101734900989   -5516.101734900989   25121.606403841892  -31808.611882018671    1170.903743275793 
  363000   -5554.109578295131   -5554.109578295131   25117.195011488326  -31811.478077543201    1140.173487759740 
  364000   -5536.922347470030   -5536.922347470030   25169.451867513548  -31807.031371343310    1100.657156359736 
  365000   -5560.588378927419   -5560.588378927419   25077.365145635496  -31810.432268518816    1172.478743955896 
  366000   -5506.499752732478   -5506.499752732478   25262.140697962561  -31808.896138383345    1040.255687688309 
  367000   -5521.239702142644   -5521.239702142644   25155.992794019563  -31806.676059293728    1129.443563131522 
  368000   -5506.087060116250   -5506.087060116250   25210.398938499504  -31811.328298621989    1094.842300006233 
  369000   -5474.446610958483   -5474.446610958483   25271.795013782579  -31808.172320754584    1061.930696013519 
  370000   -5538.033908814024   -5538.033908814024   25144.861621260501  -31809.016594467139    1126.121064392614 
  371000   -5503.683656621539   -5503.683656621539   25199.641835451086  -31811.799798169206    1108.474306096577 
  372000   -5531.016300908377   -5531.016300908377   25262.436895170722  -31808.319209661215    1014.866013582111 
  373000   -5493.888966868602   -5493.888966868602   25278.387872976880  -31806.274859218174    1033.998019372693 
  374000   -5545.534938114637   -5545.534938114637   25234.830580614514  -31808.942767432432    1028.577248703278 
  375000   -5530.119071783571   -5530.119071783571   25233.529705524197  -31806.374578690953    1042.725801383182 
  376000   -5394.477577588757   -5394.477577588757   25436.447053289055  -31807.690990580071     976.766359702258 
  377000   -5521.404773843296   -5521.404773843296   25270.910852877139  -31811.639465262979    1019.323838542539 
  378000   -5441.117616248866   -5441.117616248866   25370.639008876999  -31807.890719490104     996.134094364238 
  379000   -5524.962470529092   -5524.962470529092   25180.987745693321  -31810.268784640921    1104.318568418508 
  380000   -5511.916631163025   -5511.916631163025   25193.700752771907  -31810.149050050331    1104.531666115401 
  381000   -5518.656816780694   -5518.656816780694   25234.617716648416  -31807.930498977115    1054.655965548001 
  382000   -5512.905790536333   -5512.905790536333   25253.496938034528  -31807.022532238556    1040.619803667695 
  383000   -5450.543538897371   -5450.543538897371   25296.196559268261  -31809.741589195764    1063.001491030129 
  384000   -5482.870374920694   -5482.870374920694   25260.473258642607  -31803.969563555325    1060.625929992023 
  385000   -5473.088171186871   -5473.088171186871   25191.357721409309  -31809.048665400398    1144.602772804222 
  386000   -5458.203979290021   -5458.203979290021   25338.636573496944  -31806.196277545063    1009.355724758099 
  387000   -5566.864073180270   -5566.864073180270   25117.195699865566  -31810.171806939907    1126.112033894069 
  388000   -5493.576227676716   -5493.576227676716   25269.635493699840  -31805.365502335997    1042.153780959436 
  389000   -5484.270089801608   -5484.270089801608   25240.492631600900  -31808.199365534656    1083.436644132153 
  390000   -5556.555206956975   -5556.555206956975   25079.616387517108  -31806.129140208883    1169.957545734793 
  391000   -5517.096482395042   -5517.096482395042   25122.121375900970  -31808.592053638960    1169.374195342951 
  392000   -5548.936203914887   -5548.936203914887   25170.039274008810  -31806.924866634577    1087.949388710883 
  393000   -5563.728086044717   -5563.728086044717   25197.763888285790  -31813.896635650013    1052.404661319505 
  394000   -5554.056464140147   -5554.056464140147   25125.439852599262  -31808.018464081841    1128.522147342430 
  395000   -5534.016214220268   -5534.016214220268   25130.764182834064  -31808.351976913160    1143.571579858827 
  396000   -5521.039254057116   -5521.039254057116   25195.839441475320  -31809.486910740499    1092.608215208072 
  397000   -5499.797844878714   -5499.797844878714   25265.406873337030  -31808.872015013982    1043.667296798233 
  398000   -5553.243365202990   -5553.243365202990   25175.144823458319  -31812.360701363563    1083.972512702251 
  399000   -5526.185206150672   -5526.185206150672   25192.107648076977  -31804.247679210472    1085.954824982821 
  400000   -5557.253022157929   -5557.253022157929   25116.224022197508  -31808.001791976138    1134.524747620694 
  401000   -5520.146889996333   -5520.146889996333   25136.044242958134  -31809.189212464647    1152.998079510176 
  402000   -5552.579395334404   -5552.579395334404   25137.632586432072  -31807.901646107857    1117.689664341386 
  403000   -5569.881730851728   -5569.881730851728   25163.970111800161  -31811.430021354241    1077.578178702350 
  404000   -5475.226818816263   -5475.226818816263   25261.386736221866  -31809.586599977600    1072.973044939471 
  405000   -5535.866696249810   -5535.866696249810   25139.383593316437  -31809.850560035193    1134.600270468945 
  406000   -5557.731963700251   -5557.731963700251   25106.342421994152  -31810.595320176602    1146.520934482202 
  407000   -5562.425745869656   -5562.425745869656   25116.337605189739  -31814.633211692922    1135.869860633526 
  408000   -5488.114173593287   -5488.114173593287   25266.640828868382  -31807.270968785855    1052.515966324190 
  409000   -5520.828794775596   -5520.828794775596   25210.410623909545  -31810.629408638208    1079.389989953067 
  410000   -5423.979574096757   -5423.979574096757   25304.290991791226  -31809.912370002035    1081.641804114049 
  411000   -5496.703341383822   -5496.703341383822   25251.847918654174  -31809.164577346488    1060.613317308492 
  412000   -5544.126824080646   -5544.126824080646   25139.991297741428  -31806.898830265982    1122.780708443909 
  413000   -5470.954680619390   -5470.954680619390   25233.408211772781  -31806.097658791317    1101.734766399145 
  414000   -5521.376945744916   -5521.376945744916   25177.901924434966  -31806.266582542728    1106.987712362848 
  415000   -5556.363382496136   -5556.363382496136   25179.468823017931  -31808.383484106078    1072.551278592014 
  416000   -5574.812708422553   -5574.812708422553   25091.853853788827  -31810.106352844996    1143.439790633615 
  417000   -5503.293281377610   -5503.293281377610   25263.043183329417  -31808.929300928088    1042.592836221065 
  418000   -5461.388816443610   -5461.388816443610   25300.195676986084  -31804.440574198412    1042.856080768710 
  419000   -5540.697913812957   -5540.697913812957   25160.876526906195  -31810.297775642972    1108.723334923824 
  420000   -5519.281437452693   -5519.281437452693   25295.644333583128  -31810.425394001497     995.499622965672 
  421000   -5544.710022994066   -5544.710022994066   25124.248944243867  -31812.950402817529    1143.991435579592 
  422000   -5551.335242921807   -5551.335242921807   25225.144171925247  -31805.837430157138    1029.358015310089 
  423000   -5535.861236388642   -5535.861236388642   25182.995618957902  -31810.984220398874    1092.127365052328 
  424000   -5575.507406715318   -5575.507406715318   25106.320202920317  -31812.114071628479    1130.286461992843 
  425000   -5488.558822498850   -5488.558822498850   25253.524978100442  -31806.224807811443    1064.141007212149 
  426000   -5536.874360919046   -5536.874360919046   25178.589178148195  -31807.316215657283    1091.852676590039 
  427000   -5521.813328552922   -5521.813328552922   25201.352349124820  -31805.149588120312    1081.983910442571 
  428000   -5594.785876830036   -5594.785876830036   25116.123741430554  -31813.172233146171    1102.262614885584 
  429000   -5531.491186228264   -5531.491186228264   25123.980122753921  -31807.864634022302    1152.393325040115 
  430000   -5545.517413054182   -5545.517413054182   25145.677383267466  -31810.059236732228    1118.864440410580 
  431000   -5532.886640435430   -5532.886640435430   25169.158865169302  -31810.764981207747    1108.719475603013 
  432000   -5520.220616250252   -5520.220616250252   25169.893578962223  -31808.332752378061    1118.218557165588 
  433000   -5566.202543705345   -5566.202543705345   25122.198453284356  -31813.621796742751    1125.220799753059 
  434000   -5573.569233296010   -5573.569233296010   25153.014864122200  -31810.131615674378    1083.547518256168 
  435000   -5520.698432564252   -5520.698432564252   25105.763505835923  -31810.320278000945    1183.858339600769 
  436000   -5539.471635797392   -5539.471635797392   25186.978031585742  -31804.784703008467    1078.335035625331 
  437000   -5548.702453831385   -5548.702453831385   25193.189544718254  -31805.914522061023    1064.022523511382 
  438000   -5515.599017063814   -5515.599017063814   25261.363667471269  -31807.023975426429    1030.061290891343 
  439000   -5473.469843174084   -5473.469843174084   25193.962411233486  -31803.413514664193    1135.981260256623 
  440000   -5535.007181621531   -5535.007181621531   25234.062620485565  -31808.250999972406    1039.181197865308 
  441000   -5553.679544519062   -5553.679544519062   25198.176913180301  -31810.105961446603    1058.249503747241 
  442000   -5476.131094461911   -5476.131094461911   25258.046193798655  -31806.851734556174    1072.674446295607 
  443000   -5475.747779727713   -5475.747779727713   25277.977416507700  -31805.353569750609    1051.628373515196 
  444000   -5546.019682577997   -5546.019682577997   25176.965009759893  -31811.563374511086    1088.578682173193 
  445000   -5509.370113830475   -5509.370113830475   25175.306572321770  -31807.210472032770    1122.533785880527 
  446000   -5547.590062090989   -5547.590062090989   25142.027867728473  -31808.966045874640    1119.348116055178 
  447000   -5452.412970162422   -5452.412970162422   25328.536524013838  -31808.716838854605    1027.767344678346 
  448000   -5553.155232483790   -5553.155232483790   25138.826304087528  -31810.608381172686    1118.626844601371 
  449000   -5492.437704692013   -5492.437704692013   25196.654645601746  -31804.636924211147    1115.544573917383 
  450000   -5516.078232368887   -5516.078232368887   25222.076380334864  -31810.641457859823    1072.486845156075 
  451000   -5521.879757395982   -5521.879757395982   25193.597218408646  -31809.019014411017    1093.542038606388 
  452000   -5510.701161670604   -5510.701161670604   25199.847931971413  -31809.576577330936    1099.027483688919 
  453000   -5512.837669520261   -5512.837669520261   25197.333678302188  -31811.447466337318    1101.276118514875 
  454000   -5527.317351212951   -5527.317351212951   25211.887753871088  -31809.456541034077    1070.251435950037 
  455000   -5473.226535365855   -5473.226535365855   25322.311391589526  -31806.064272543463    1010.526345588083 
  456000   -5545.984051557502   -5545.984051557502   25217.125909621114  -31813.107636535024    1049.997675356408 
  457000   -5480.821290466447   -5480.821290466447   25265.149384450808  -31810.573404522998    1064.602729605739 
  458000   -5531.705641202148   -5531.705641202148   25176.548725537992  -31807.393279494496    1099.138912754358 
  459000   -5588.817058600831   -5588.817058600831   25099.902957759481  -31811.119711970212    1122.399695609898 
  460000   -5512.592587896961   -5512.592587896961   25199.491025978234  -31809.018018553743    1096.934404678547 
  461000   -5595.882403169591   -5595.882403169591   25104.016303197590  -31808.394397386903    1108.495691019723 
  462000   -5542.683175952083   -5542.683175952083   25166.297564387958  -31805.447157645598    1096.466417305556 
  463000   -5556.837732571377   -5556.837732571377   25153.549914833493  -31811.101792549267    1100.714145144399 
  464000   -5488.419244156044   -5488.419244156044   25246.297175777105  -31805.732092982253    1071.015673049105 
  465000   -5528.444533429294   -5528.444533429294   25164.276443906918  -31812.396298454532    1119.675321118320 
  466000   -5533.803690492397   -5533.803690492397   25165.018167937658  -31812.647008056822    1113.825149626771 
  467000   -5539.295217501382   -5539.295217501382   25211.153041803125  -31809.821053490734    1059.372794186225 
  468000   -5516.675279428495   -5516.675279428495   25220.937085870253  -31814.272360342442    1076.659995043690 
  469000   -5515.048185720618   -5515.048185720618   25254.157137714483  -31806.447413589049    1037.242090153949 
  470000   -5537.726365516060   -5537.726365516060   25187.129198112430  -31811.858885709171    1087.003322080681 
  471000   -5521.686205729526   -5521.686205729526   25140.642944909232  -31810.337066759410    1148.007916120652 
  472000   -5568.112324802270   -5568.112324802270   25162.580228544910  -31806.620817615123    1075.928264267941 
  473000   -5558.389213679831   -5558.389213679831   25130.795328305023  -31810.115596510095    1120.931054525242 
  474000   -5562.345054369805   -5562.345054369805   25172.661441974167  -31812.155557993785    1077.149061649812 
  475000   -5503.321402846766   -5503.321402846766   25233.384070448668  -31809.297080910281    1072.591607614847 
  476000   -5604.887554609370   -5604.887554609370   25077.721375616802  -31811.339453134755    1128.730522908582 
  477000   -5562.016119893804   -5562.016119893804   25126.819259399326  -31810.861739069434    1122.026359776305 
  478000   -5500.467053371427   -5500.467053371427   25271.412892483135  -31810.775383248631    1038.895437394074 
  479000   -5481.665660599938   -5481.665660599938   25227.201340702442  -31811.002287180672    1102.135285878293 
  480000   -5463.909936803946   -5463.909936803946   25218.599317158161  -31806.182478489500    1123.673224527396 
  481000   -5460.247409021558   -5460.247409021558   25214.045145066113  -31805.221801806583    1130.929247718914 
  482000   -5498.753696090815   -5498.753696090815   25253.739872966333  -31809.827389504338    1057.333820447194 
  483000   -5517.175159575268   -5517.175159575268   25157.924344813910  -31810.037464266294    1134.937959877112 
  484000   -5543.640856204351   -5543.640856204351   25109.429184450375  -31808.718518498623    1155.648477843899 
  485000   -5627.474946565610   -5627.474946565610   24957.994197001219  -31811.315885167754    1225.846741600921 
  486000   -5557.922804832975   -5557.922804832975   25120.781429522649  -31808.809853781117    1130.105619425490 
  487000   -5580.188347568805   -5580.188347568805   25098.554885279387  -31804.261114145091    1125.517881296900 
  488000   -5580.944755509583   -5580.944755509583   25132.900593915336  -31811.621662109945    1097.776312685028 
  489000   -5550.519994645798   -5550.519994645798   25077.119119836629  -31808.107749070859    1180.468634588433 
  490000   -5537.800744794808   -5537.800744794808   25156.875088086512  -31808.114494798541    1113.438661917221 
  491000   -5516.729830485227   -5516.729830485227   25212.342136018611  -31806.720238011738    1077.648271507898 
  492000   -5532.472757301392   -5532.472757301392   25122.937559716280  -31806.952348823263    1151.542031805585 
  493000   -5520.055785285087   -5520.055785285087   25213.881103390453  -31809.417338537714    1075.480449862170 
  494000   -5544.939769403427   -5544.939769403427   25165.070547398984  -31807.381743154041    1097.371426351631 
  495000   -5518.306023187088   -5518.306023187088   25272.469135792908  -31813.229946289193    1022.454787309196 
  496000   -5480.806727695828   -5480.806727695828   25227.330504675090  -31807.899465728718    1099.762233357796 
  497000   -5490.548259116509   -5490.548259116509   25210.200505114983  -31806.400365203714    1105.651600972221 
  498000   -5565.720175082013   -5565.720175082013   25060.711312948224  -31812.346775987426    1185.915287957187 
  499000   -5514.643942644740   -5514.643942644740   25270.852450980259  -31811.310580871585    1025.814187246585 
  500000   -5491.141030963478   -5491.141030963478   25277.729399369946  -31806.394072265575    1037.523641932153 
  501000   -5519.090455106347   -5519.090455106347   25185.334335680098  -31810.497478173736    1106.072687387290 
  502000   -5513.801043558877   -5513.801043558877   25189.074880182892  -31813.701034361569    1110.825110619804 
  503000   -5521.107546515603   -5521.107546515603   25149.427608585778  -31806.062300695201    1135.527145593823 
  504000   -5464.471394916305   -5464.471394916305   25309.135904967450  -31808.647864278202    1035.040564394442 
  505000   -5553.151461983212   -5553.151461983212   25163.423939722303  -31810.503985738673    1093.928584033156 
  506000   -5492.154126771860   -5492.154126771860   25208.722015853265  -31804.766903205320    1103.890760580191 
  507000   -5488.231444158078   -5488.231444158078   25200.451149136847  -31809.722884525221    1121.040291230295 
  508000   -5512.420721987855   -5512.420721987855   25170.380630438289  -31808.876003941521    1126.074651515378 
  509000   -5463.306078901674   -5463.306078901674   25210.573128998083  -31806.108320770996    1132.229112871241 
  510000   -5489.917644443918   -5489.917644443918   25197.545812000848  -31808.084213628899    1120.620757184134 
  511000   -5585.074721236317   -5585.074721236317   25121.267125272418  -31807.419358151026    1101.077511642292 
  512000   -5511.937250747502   -5511.937250747502   25267.918366904916  -31808.147062758919    1028.291445106495 
  513000   -5522.941490322850   -5522.941490322850   25246.567844961384  -31806.767402317433    1037.258067033195 
  514000   -5545.200098688765   -5545.200098688765   25140.388085607105  -31807.273576896143    1121.685392600273 
  515000   -5482.591900822572   -5482.591900822572   25282.395781819600  -31804.388484969902    1039.400802327730 
  516000   -5483.187379363360   -5483.187379363360   25235.377147641750  -31808.388442656502    1089.823915651394 
  517000   -5512.249342999545   -5512.249342999545   25246.826416691081  -31809.654175136871    1050.578415446241 
  518000   -5555.387580839037   -5555.387580839037   25150.807462455032  -31808.198166871669    1102.003123577593 
  519000   -5542.338984816655   -5542.338984816655   25204.225272953568  -31808.111208756396    1061.546950986172 
  520000   -5544.981328681952   -5544.981328681952   25173.006664008091  -31809.247853411220    1091.259860721183 
  521000   -5548.374467699221   -5548.374467699221   25125.242001174243  -31809.732669102763    1136.116200229300 
  522000   -5525.336373110997   -5525.336373110997   25119.778144453583  -31807.657707506918    1162.543189942339 
  523000   -5517.406378511008   -5517.406378511008   25161.925250881650  -31810.479649431392    1131.148020038733 
  524000   -5554.148811999574   -5554.148811999574   25156.953731951915  -31812.010078928568    1100.907534977078 
  525000   -5576.409076125699   -5576.409076125699   25074.957535592013  -31808.392048707869    1157.025436990154 
  526000   -5598.499591787488   -5598.499591787488   25093.221811177587  -31810.552738512237    1118.831335547165 
  527000   -5576.345969681777   -5576.345969681777   25089.724510746259  -31806.842783788092    1140.772303360057 
  528000   -5450.306027429171   -5450.306027429171   25254.344986747921  -31803.577274556570    1098.926260379478 
  529000   -5554.215086204120   -5554.215086204120   25178.511361592144  -31811.509290907994    1078.782843111730 
  530000   -5468.942847287493   -5468.942847287493   25270.408549174274  -31806.823262956721    1067.471866494953 
  531000   -5528.233546388525   -5528.233546388525   25248.137928321601  -31809.213792424220    1032.842317714097 
  532000   -5507.914085249242   -5507.914085249242   25164.665299970362  -31810.128870318244    1137.549485098642 
  533000   -5559.207986978676   -5559.207986978676   25122.081902160186  -31810.196110297758    1128.906221158897 
  534000   -5557.535077668887   -5557.535077668887   25074.914896069189  -31808.122604276272    1175.672630538199 
  535000   -5604.755765983726   -5604.755765983726   25112.031996817554  -31808.056752982426    1091.268990181143 
  536000   -5479.459148224472   -5479.459148224472   25226.264712372187  -31809.416916456918    1103.693055860257 
  537000   -5477.840112760514   -5477.840112760514   25254.512665515977  -31807.262369751890    1074.909591475399 
  538000   -5500.525064146987   -5500.525064146987   25224.696132303987  -31811.422151109295    1086.200954658316 
  539000   -5567.297376712875   -5567.297376712875   25150.591386987508  -31808.898347765604    1091.009584065221 
  540000   -5537.119904354593   -5537.119904354593   25149.413217268608  -31810.325080258197    1123.791958634994 
  541000   -5512.203979139980   -5512.203979139980   25169.476097260726  -31802.379011681027    1120.698935280319 
  542000   -5521.852269719078   -5521.852269719078   25146.437348011230  -31810.312495409962    1142.022877679650 
  543000   -5491.424492776430   -5491.424492776430   25227.558606626750  -31808.814610904523    1089.831511501343 
  544000   -5489.502012383411   -5489.502012383411   25274.402913720220  -31805.808838010154    1041.903911906522 
  545000   -5462.731893808472   -5462.731893808472   25236.053741040887  -31804.469047071776    1105.683412222421 
  546000   -5493.034366572116   -5493.034366572116   25220.624267140334  -31808.026143451621    1094.367509739169 
  547000   -5596.295153636682   -5596.295153636682   25117.181609470739  -31808.083293288255    1094.606530180840 
  548000   -5522.381593902312   -5522.381593902312   25191.655443922195  -31811.280070624471    1097.243032799962 
  549000   -5529.657615795513   -5529.657615795513   25237.182651302031  -31806.435925446662    1039.595658349124 
  550000   -5453.504661816627   -5453.504661816627   25279.833558226659  -31810.038119214016    1076.699899170731 
  551000   -5576.758976996694   -5576.758976996694   25155.415580037559  -31808.314308935645    1076.139751901393 
  552000   -5477.595190851520   -5477.595190851520   25166.665343951383  -31809.526368832143    1165.265834029238 
  553000   -5554.386065598050   -5554.386065598050   25189.549279475497  -31812.138028831501    1068.202683757951 
  554000   -5490.265458747850   -5490.265458747850   25196.621259318934  -31808.223005576070    1121.336287509280 
  555000   -5558.914942117692   -5558.914942117692   25124.246215980587  -31809.347348759438    1126.186190661163 
  556000   -5412.187958510567   -5412.187958510567   25347.392316852911  -31807.027336353487    1047.447060990007 
  557000   -5524.303142234465   -5524.303142234465   25200.109009533342  -31809.095164260110    1084.683012492302 
  558000   -5515.289902115215   -5515.289902115215   25228.695558601947  -31811.343155029052    1067.357694311891 
  559000   -5579.609948599551   -5579.609948599551   25094.980166833677  -31806.321094823987    1131.730979390763 
  560000   -5461.707778254880   -5461.707778254880   25283.410005951053  -31805.891743761935    1060.773959555999 
  561000   -5512.919587749049   -5512.919587749049   25244.493359828033  -31808.933129987072    1051.520182409990 
  562000   -5497.949699122091   -5497.949699122091   25278.213410004850  -31810.127713947695    1033.964604820750 
  563000   -5504.327214662022   -5504.327214662022   25230.462949727378  -31805.330518818373    1070.540354428977 
  564000   -5531.585948562933   -5531.585948562933   25136.321328575337  -31806.791373426415    1138.884096288144 
  565000   -5529.641593431996   -5529.641593431996   25135.601609318044  -31808.598094687259    1143.354891937221 
  566000   -5469.425338003864   -5469.425338003864   25266.245357689742  -31805.033111082477    1069.362415388874 
  567000   -5538.048115230573   -5538.048115230573   25212.202664561995  -31806.822117832824    1056.571338040253 
  568000   -5547.731433614674   -5547.731433614674   25178.462383949096  -31809.281734256125    1083.087916692351 
  569000   -5547.095844832245   -5547.095844832245   25193.475662866917  -31807.758095981455    1067.186588282289 
  570000   -5435.100397036567   -5435.100397036567   25354.643425088943  -31810.586162986281    1020.842340860773 
  571000   -5493.585152349660   -5493.585152349660   25273.437180829758  -31810.001568455089    1042.979235275662 
  572000   -5467.810461741781   -5467.810461741781   25266.372471683480  -31811.034418470412    1076.851485045152 
  573000   -5517.693076211253   -5517.693076211253   25192.774091697491  -31808.786692718510    1098.319524809764 
  574000   -5543.885383079512   -5543.885383079512   25191.704304187893  -31810.697925176730    1075.108237909325 
  575000   -5495.675771503847   -5495.675771503847   25200.487898469852  -31810.502793651467    1114.339123677767 
  576000   -5484.336261587163   -5484.336261587163   25252.916484369889  -31810.827338658415    1073.574592701368 
  577000   -5510.474485363113   -5510.474485363113   25199.415148102187  -31811.155519474953    1101.265886009652 
  578000   -5507.689611407852   -5507.689611407852   25134.721212443081  -31807.757165264746    1165.346341413815 
  579000   -5511.274384720029   -5511.274384720029   25221.791137534168  -31803.587229169392    1070.521706915193 
  580000   -5581.540812502692   -5581.540812502692   25142.409416912305  -31811.581629527023    1087.631400112025 
  581000   -5528.469615971189   -5528.469615971189   25167.295974725948  -31810.813768483160    1115.048177786016 
  582000   -5537.199414046529   -5537.199414046529   25173.111464969985  -31808.152189326680    1097.841310310168 
  583000   -5518.300011530122   -5518.300011530122   25226.496046127566  -31808.104312269083    1063.308254611395 
  584000   -5497.165968265359   -5497.165968265359   25132.671093228564  -31806.847487506446    1177.010426012529 
  585000   -5540.942072096765   -5540.942072096765   25137.427694419679  -31806.118331789050    1127.748565272607 
  586000   -5525.865186769614   -5525.865186769614   25246.830632431986  -31813.374016141152    1040.678196939554 
  587000   -5468.615585156298   -5468.615585156298   25316.625134008376  -31805.927054588887    1020.686335424212 
  588000   -5528.816117900627   -5528.816117900627   25146.006760121974  -31809.742439252863    1134.919561230264 
  589000   -5564.087853171222   -5564.087853171222   25102.259791007993  -31811.996354867020    1145.648710687802 
  590000   -5548.349968289542   -5548.349968289542   25077.823941354654  -31808.216701262150    1182.042791617956 
  591000   -5495.150391118961   -5495.150391118961   25204.148173329042  -31807.023452808298    1107.724888360292 
  592000   -5551.694086914202   -5551.694086914202   25091.629019496642  -31809.490666800764    1166.167560389922 
  593000   -5501.290120902868   -5501.290120902868   25190.653305207277  -31804.255115744949    1112.311689634803 
  594000   -5562.674261830907   -5562.674261830907   25160.333606559274  -31811.977263493747    1088.969395103566 
  595000   -5573.022206472408   -5573.022206472408   25143.832994962842  -31808.457183612161    1091.601982176909 
  596000   -5552.803175258650   -5552.803175258650   25136.062593992610  -31814.055300064509    1125.189530813251 
  597000   -5523.137795338156   -5523.137795338156   25227.841948759036  -31810.689511061031    1059.709766963838 
  598000   -5466.817533251880   -5466.817533251880   25226.126523410996  -31808.922420879033    1115.978364216154 
  599000   -5511.667579512483   -5511.667579512483   25221.682813457839  -31810.315694597477    1076.965301627158 
  600000   -5541.495592702824   -5541.495592702824   25191.609136358096  -31809.754069861137    1076.649340800215 
  601000   -5453.721573095307   -5453.721573095307   25281.707844259581  -31806.111465337319    1070.682047982428 
  602000   -5530.426187840829   -5530.426187840829   25225.380736471874  -31809.475387277991    1053.668462965287 
  603000   -5523.867270291154   -5523.867270291154   25146.601346868920  -31809.859713553462    1139.391096393387 
  604000   -5547.199393123785   -5547.199393123785   25187.188079387051  -31809.267762117914    1074.880289607075 
  605000   -5521.506919057410   -5521.506919057410   25221.159581797292  -31806.958485229243    1064.291984374549 
  606000   -5560.781749858244   -5560.781749858244   25181.218876287141  -31810.397092537198    1068.396466391814 
  607000   -5529.902120282666   -5529.902120282666   25190.326638011313  -31810.640932867980    1090.412174573998 
  608000   -5511.525291337915   -5511.525291337915   25175.202521128529  -31808.471539568302    1121.743727101859 
  609000   -5578.568355866119   -5578.568355866119   25136.046893095856  -31811.695597486996    1097.080348525022 
  610000   -5502.352384119735   -5502.352384119735   25218.717840247853  -31807.878767791775    1086.808543424185 
  611000   -5545.124111607944   -5545.124111607944   25182.464802689508  -31809.760132162330    1082.171217864878 
  612000   -5463.081927505955   -5463.081927505955   25242.203930936441  -31806.136639196789    1100.850780754393 
  613000   -5521.132666629335   -5521.132666629335   25128.158748762347  -31811.592945338591    1162.301529946906 
  614000   -5483.981571503897   -5483.981571503897   25285.810688759469  -31809.553762360309    1039.761502096939 
  615000   -5542.711950456192   -5542.711950456192   25141.271269840629  -31810.996714490844    1127.013494194020 
  616000   -5492.645857266394   -5492.645857266394   25223.108450842126  -31812.501128770182    1096.746820661660 
  617000   -5489.472021845275   -5489.472021845275   25265.746810784949  -31810.509294439540    1055.290461809312 
  618000   -5540.895404392111   -5540.895404392111   25107.382439240781  -31811.063162317969    1162.785318685081 
  619000   -5606.164596512448   -5606.164596512448   25132.826096321987  -31807.208721652849    1068.218028818416 
  620000   -5499.707034565508   -5499.707034565508   25186.650567765631  -31803.561056671912    1117.203454340770 
  621000   -5572.573477652888   -5572.573477652888   25178.453673902841  -31809.643566076611    1058.616414520883 
  622000   -5573.895174273119   -5573.895174273119   25118.948136576539  -31814.419472551210    1121.576161701557 
  623000   -5433.734663894506   -5433.734663894506   25357.862878276406  -31807.555288763699    1015.957746592787 
  624000   -5534.449305496149   -5534.449305496149   25150.577251721530  -31807.951315916303    1122.924758698619 
  625000   -5571.051989064283   -5571.051989064283   25147.243045422478  -31811.700848638793    1093.405814152034 
  626000   -5520.167104956319   -5520.167104956319   25256.083465783311  -31812.509430562499    1036.258859822865 
  627000   -5539.572935629465   -5539.572935629465   25167.288790640087  -31805.746298692236    1098.884572422682 
  628000   -5526.988588350414   -5526.988588350414   25204.993522944111  -31815.519222815648    1083.537111521118 
  629000   -5544.404180013546   -5544.404180013546   25142.620517693766  -31809.764222630150    1122.739524922838 
  630000   -5553.935193613321   -5553.935193613321   25195.752246453729  -31811.686339332176    1061.998899265130 
  631000   -5445.826209970495   -5445.826209970495   25331.456216302959  -31807.239364846559    1029.956938573107 
  632000   -5562.007312546659   -5562.007312546659   25126.342304178310  -31809.082130640170    1120.732513915196 
  633000   -5513.621316230492   -5513.621316230492   25176.603196253156  -31811.911927244117    1121.687414760476 
  634000   -5507.517888118135   -5507.517888118135   25211.209323250863  -31804.658426023914    1085.931214654913 
  635000   -5510.933030160053   -5510.933030160053   25205.415485665711  -31807.380092379331    1091.031576553570 
  636000   -5541.026966220266   -5541.026966220266   25128.772122576163  -31808.909757298516    1139.110668502081 
  637000   -5579.949575429411   -5579.949575429411   25065.766480280254  -31805.873211517595    1160.157155807934 
  638000   -5537.595905303631   -5537.595905303631   25196.862930606367  -31810.020874796897    1075.562038886902 
  639000   -5541.594855902742   -5541.594855902742   25234.078262441599  -31809.745736677665    1034.072618333324 
  640000   -5501.492677155282   -5501.492677155282   25200.582090032774  -31807.460950723231    1105.386183535172 
  641000   -5494.111679362028   -5494.111679362028   25217.894648614794  -31809.841935608809    1097.835607631989 
  642000   -5544.451575720308   -5544.451575720308   25251.729413024423  -31810.770425191396    1014.589436446669 
  643000   -5516.532965225619   -5516.532965225619   25146.340280706034  -31810.326038562649    1147.452792630990 
  644000   -5504.466429328542   -5504.466429328542   25233.856739623308  -31810.839222595689    1072.516053643838 
  645000   -5522.934144690127   -5522.934144690127   25182.665099934027  -31808.102091879424    1102.502847255268 
  646000   -5488.397393508290   -5488.397393508290   25258.533723138295  -31807.430857389649    1060.499740743063 
  647000   -5501.111381279003   -5501.111381279003   25264.436382369477  -31810.591831799120    1045.044068150640 
  648000   -5518.874063071293   -5518.874063071293   25172.648103291715  -31805.653617166299    1114.131450803295 
  649000   -5594.842189605675   -5594.842189605675   25099.016166332240  -31807.131099562892    1113.272743624975 
  650000   -5547.384312451202   -5547.384312451202   25128.024174069800  -31805.746597126548    1130.338110605548 
  651000   -5533.884020374495   -5533.884020374495   25157.335752945022  -31807.499948498491    1116.280175178974 
  652000   -5520.624331801395   -5520.624331801395   25163.423319956812  -31811.336319656893    1127.288667898690 
  653000   -5549.868738082230   -5549.868738082230   25156.250052275362  -31813.075701003549    1106.956910645954 
  654000   -5488.115448738063   -5488.115448738063   25286.399107819634  -31809.997226672906    1035.482670115205 
[...]
 4838000   -5526.013963734935   -5526.013963734935   25065.668075448950  -31617.679790849506    1025.997751665623 
 4839000   -5610.555095920419   -5610.555095920419   24880.916761780572  -31623.228949436842    1131.757091735849 
 4840000   -5494.746253665573   -5494.746253665573   25036.654530174670  -31621.290995331590    1089.890211491348 
 4841000   -5563.086332491897   -5563.086332491897   24972.396095210854  -31621.615683402350    1086.133255699599 
 4842000   -5524.228468026115   -5524.228468026115   24978.341037978185  -31618.298025601929    1115.728519597629 
 4843000   -5553.955668817023   -5553.955668817023   24973.682478976792  -31625.462599606475    1097.824451812653 
 4844000   -5546.230324657095   -5546.230324657095   24905.970695663458  -31614.901385073128    1162.700364752577 
 4845000   -5547.155703475044   -5547.155703475044   24893.087991638607  -31619.749534096765    1179.505838983114 
 4846000   -5608.871516474337   -5608.871516474337   24911.043580847916  -31622.942425709360    1103.027328387107 
 4847000   -5518.297175042659   -5518.297175042659   24968.364818589271  -31619.674248053740    1133.012254421815 
 4848000   -5521.044147804838   -5521.044147804838   24944.001111625570  -31622.156223731043    1157.110964300637 
 4849000   -5532.466377677727   -5532.466377677727   24943.834708334682  -31622.821774569362    1146.520688556955 
 4850000   -5538.927699133928   -5538.927699133928   25017.600192046913  -31620.681665777458    1064.153774596616 
 4851000   -5556.515687100800   -5556.515687100800   24979.670519319319  -31620.477522841160    1084.291316421034 
 4852000   -5515.762380697714   -5515.762380697714   24977.464739051986  -31624.050269009149    1130.823149259449 
 4853000   -5571.279356543066   -5571.279356543066   24952.140276444465  -31619.280454887306    1095.860821899774 
 4854000   -5520.276035874213   -5520.276035874213   25079.006935626356  -31615.215271770539    1015.932300269977 
 4855000   -5534.809139910099   -5534.809139910099   24977.320318991420  -31618.084555971483    1105.955097069964 
 4856000   -5494.720634788457   -5494.720634788457   25083.530825823509  -31617.894731456265    1039.643270844302 
 4857000   -5443.383129057351   -5443.383129057351   25186.849285682161  -31620.166429044850     989.934014305338 
 4858000   -5521.706100656331   -5521.706100656331   25009.394353414707  -31619.443630824153    1088.343176753115 
 4859000   -5507.069811232137   -5507.069811232137   25017.052591067848  -31618.016252226404    1093.893849926420 
 4860000   -5537.598804269041   -5537.598804269041   24951.807628478844  -31619.720776861268    1130.314344113383 
 4861000   -5516.224054509217   -5516.224054509217   25061.194065912838  -31622.987347123712    1045.569226701655 
 4862000   -5507.243874150969   -5507.243874150969   25018.776021533457  -31620.419306880991    1094.399411196567 
 4863000   -5547.282420595409   -5547.282420595409   24981.721051458990  -31615.901649011928    1086.898176957529 
 4864000   -5543.535018974686   -5543.535018974686   24899.860713945018  -31622.225330733847    1178.829597814147 
 4865000   -5527.408567892086   -5527.408567892086   24995.288378018260  -31623.958751331160    1101.261805420821 
 4866000   -5467.177405906681   -5467.177405906681   25064.706532855427  -31616.323573213176    1084.439634451066 
 4867000   -5500.543321459616   -5500.543321459616   25009.937086360631  -31619.261306929413    1108.780899109169 
 4868000   -5582.137382440389   -5582.137382440389   24925.774757723313  -31619.732922960811    1111.820782797109 
 4869000   -5583.033745694887   -5583.033745694887   24923.317072676396  -31622.038567000665    1115.687748629383 
 4870000   -5491.058307479463   -5491.058307479463   25049.639842490604  -31621.015437467729    1080.317287497666 
 4871000   -5491.360660479477   -5491.360660479477   25008.036050839437  -31623.920303343613    1124.523592024696 
 4872000   -5537.285992236353   -5537.285992236353   24967.922659904172  -31621.038069753271    1115.829417612744 
 4873000   -5513.648450814704   -5513.648450814704   25122.833662532845  -31622.907334912925     986.425221565379 
 4874000   -5502.871716930356   -5502.871716930356   25085.881000566187  -31625.384536985257    1036.631819488718 
 4875000   -5526.317091025525   -5526.317091025525   25014.619647302432  -31622.112618238025    1081.175879910067 
 4876000   -5507.818411264201   -5507.818411264201   25034.693873797580  -31616.360834939162    1073.848549877378 
 4877000   -5518.296816217582   -5518.296816217582   25077.078928341813  -31620.798395294329    1025.422650734935 
 4878000   -5531.378006551004   -5531.378006551004   24981.486564438361  -31621.451903317098    1108.587332327732 
 4879000   -5529.669267129451   -5529.669267129451   24965.104713467987  -31616.334990525451    1121.561009928014 
 4880000   -5555.126103651237   -5555.126103651237   24950.978739484464  -31622.259997789217    1116.155154653513 
 4881000   -5489.650713789673   -5489.650713789673   25051.576516949437  -31621.500822587604    1080.273591848491 
 4882000   -5472.515474638134   -5472.515474638134   25143.192432176987  -31616.543606992160    1000.835700177042 
 4883000   -5572.322668196924   -5572.322668196924   24975.438370900371  -31620.598911438272    1072.837872340977 
 4884000   -5428.399424471976   -5428.399424471976   25160.179084429030  -31619.526380110372    1030.947871209368 
 4885000   -5526.457001172363   -5526.457001172363   24988.239071219890  -31620.425587745460    1105.729515353209 
 4886000   -5466.980428473937   -5466.980428473937   25074.815895223779  -31614.543758579573    1072.747434881854 
 4887000   -5585.852374756225   -5585.852374756225   24993.158092828886  -31622.378088360329    1043.367620775218 
 4888000   -5536.206142991286   -5536.206142991286   24950.786706343322  -31614.967385578217    1127.974536243609 
 4889000   -5559.977382569265   -5559.977382569265   24997.383375323781  -31623.326636047583    1065.965878154535 
 4890000   -5511.471232649030   -5511.471232649030   25039.121559354440  -31621.165490296538    1070.572698293072 
 4891000   -5518.967817494664   -5518.967817494664   25065.910134860424  -31623.388083278576    1038.510130923488 
 4892000   -5536.097091753218   -5536.097091753218   25009.997828330022  -31624.465623805798    1078.370703722557 
 4893000   -5542.703251777122   -5542.703251777122   24998.952487705712  -31623.242015924123    1081.586276441287 
 4894000   -5500.915928171518   -5500.915928171518   25114.667245964734  -31622.608894490033    1007.025720353780 
 4895000   -5565.272165049224   -5565.272165049224   24923.878919275747  -31622.304654392825    1133.153570067853 
 4896000   -5462.864454094095   -5462.864454094095   25125.885475009571  -31621.750386896270    1033.000457792607 
 4897000   -5515.020086551925   -5515.020086551925   25020.302125018508  -31620.142530721518    1084.820319151081 
 4898000   -5474.867272211675   -5474.867272211675   25060.337597427286  -31617.959858469112    1082.754988830152 
 4899000   -5516.816610935293   -5516.816610935293   24992.363561818933  -31617.724147426510    1108.543974672282 
 4900000   -5473.581231938166   -5473.581231938166   25158.635316817104  -31617.816867421941     985.600318666674 
 4901000   -5492.486167091382   -5492.486167091382   25028.964599538340  -31622.778055236384    1101.327288606663 
 4902000   -5526.717266109852   -5526.717266109852   25031.449222795141  -31622.094010097389    1063.927521192403 
 4903000   -5461.051221007467   -5461.051221007467   25086.192036755903  -31619.581270634495    1072.338012871120 
 4904000   -5481.459682484001   -5481.459682484001   25109.768866868595  -31621.706967303446    1030.478417950853 
 4905000   -5587.794016472351   -5587.794016472351   24965.011121471314  -31622.267428774987    1069.462290831321 
 4906000   -5487.102611029619   -5487.102611029619   25058.629218195339  -31620.799615121203    1075.067785896246 
 4907000   -5558.323454751495   -5558.323454751495   25013.093298523956  -31617.038843670685    1045.622090395231 
 4908000   -5621.529236785351   -5621.529236785351   24824.169413647265  -31625.496274960271    1179.797624527660 
 4909000   -5547.737388198893   -5547.737388198893   24895.065545604266  -31619.804997046191    1177.002063243032 
 4910000   -5571.900201007011   -5571.900201007011   24906.462196612847  -31620.708122492426    1142.345724872567 
 4911000   -5569.693212167331   -5569.693212167331   24967.259641962301  -31622.790713260867    1085.837859131238 
 4912000   -5592.241942090648   -5592.241942090648   24964.291685181295  -31624.345614130983    1067.811986859036 
 4913000   -5559.715640819333   -5559.715640819333   24959.045058680225  -31621.932404169762    1103.171704670204 
 4914000   -5514.620566792728   -5514.620566792728   25070.779943214180  -31626.610439229564    1041.209929222653 
 4915000   -5498.087401412486   -5498.087401412486   24974.441787869542  -31621.474908499338    1148.945719217312 
 4916000   -5498.606767304947   -5498.606767304947   24971.873413729816  -31618.362567748780    1147.882386714015 
 4917000   -5552.721181715046   -5552.721181715046   25003.691434662782  -31623.908688478361    1067.496072100537 
 4918000   -5539.885852196981   -5539.885852196981   25034.760392708082  -31617.565931283232    1042.919686378170 
 4919000   -5474.234838290547   -5474.234838290547   25068.142700104567  -31623.257610217537    1080.880071822423 
 4920000   -5507.772377292742   -5507.772377292742   25024.004518994843  -31618.672219009553    1086.895322721965 
 4921000   -5547.695755300989   -5547.695755300989   24976.007653765642  -31619.126298328822    1095.422889262189 
 4922000   -5599.045045126510   -5599.045045126510   24885.716456157999  -31622.160457598315    1137.398956313807 
 4923000   -5562.156938534667   -5562.156938534667   25034.170540329716  -31620.837920480422    1024.510441616039 
 4924000   -5531.266409472184   -5531.266409472184   25009.084498154123  -31617.866872698134    1077.515965071828 
 4925000   -5536.229315935849   -5536.229315935849   25044.515063799117  -31621.646143074882    1040.901763339919 
 4926000   -5557.812863341445   -5557.812863341445   24933.794519005001  -31620.319074900413    1128.711692553962 
 4927000   -5558.346663121578   -5558.346663121578   24947.911105166735  -31622.275780844866    1116.018012556548 
 4928000   -5496.984580356249   -5496.984580356249   25108.283488227928  -31622.191998043338    1016.923929459163 
 4929000   -5444.028855393710   -5444.028855393710   25082.812198873093  -31619.012404550213    1092.171350283413 
 4930000   -5507.394035943780   -5507.394035943780   25027.840764849607  -31620.071899296690    1084.837098503297 
 4931000   -5569.433847661425   -5569.433847661425   24931.512308953454  -31618.820048524602    1117.873891909725 
 4932000   -5534.066769186138   -5534.066769186138   25006.148868089767  -31620.844194068341    1080.628556792435 
 4933000   -5560.139796981955   -5560.139796981955   24915.895327845672  -31618.028767717526    1141.993642889898 
 4934000   -5557.276802774599   -5557.276802774599   24976.920919855424  -31619.722273635918    1085.524551005899 
 4935000   -5547.314645414517   -5547.314645414517   24966.271672979376  -31616.667090493655    1103.080772099762 
 4936000   -5547.823400233265   -5547.823400233265   24971.464746031743  -31620.092786516459    1100.804640251448 
 4937000   -5509.358181164072   -5509.358181164072   24982.142822433205  -31616.085150222705    1124.584146625433 
 4938000   -5607.504375097356   -5607.504375097356   24879.910562800891  -31614.085289206803    1126.670351308555 
 4939000   -5449.579482745190   -5449.579482745190   24990.891099123866  -31615.231587805454    1174.761005936398 
 4940000   -5547.739877891636   -5547.739877891636   25071.220293876948  -31625.721163927974    1006.760992159393 
 4941000   -5536.383283543571   -5536.383283543571   24995.561111300474  -31621.216106621610    1089.271711777565 
 4942000   -5528.339345269433   -5528.339345269433   24949.520424677612  -31621.765382746969    1143.905612799928 
 4943000   -5469.770447246607   -5469.770447246607   25082.705150035963  -31618.821397623738    1066.345800341169 
 4944000   -5514.122931008809   -5514.122931008809   25026.308455381761  -31619.395422178924    1078.964035788350 
 4945000   -5493.074667020228   -5493.074667020228   24984.928983124442  -31621.150368230883    1143.146718086213 
 4946000   -5563.142879969582   -5563.142879969582   24912.526195221246  -31620.606374958559    1144.937299767728 
 4947000   -5500.471349901913   -5500.471349901913   25061.138109912532  -31619.654628753233    1058.045168938788 
 4948000   -5554.482998718788   -5554.482998718788   24962.913679068079  -31625.713962025213    1108.317284238349 
 4949000   -5542.532920674712   -5542.532920674712   24954.545290708978  -31620.429888902210    1123.351677518524 
 4950000   -5495.582961234162   -5495.582961234162   25047.108166471888  -31619.058348986724    1076.367221280677 
 4951000   -5534.910166785427   -5534.910166785427   24991.991908009648  -31615.891544964710    1088.989470169635 
 4952000   -5475.347933368994   -5475.347933368994   25041.574583400306  -31622.898515724792    1105.975998955494 
 4953000   -5467.770118495224   -5467.770118495224   25113.334922128983  -31621.302421913701    1040.197381289497 
 4954000   -5469.944450757157   -5469.944450757157   25094.541244988166  -31618.404012774521    1053.918317029196 
 4955000   -5528.651713524952   -5528.651713524952   24981.915847122105  -31621.330495374168    1110.762934727110 
 4956000   -5476.274840616894   -5476.274840616894   25059.055790865976  -31619.235229016856    1083.904597533985 
 4957000   -5481.061784209702   -5481.061784209702   25060.255690275597  -31622.507448068456    1081.189973583157 
 4958000   -5490.293581767699   -5490.293581767699   25015.437449889927  -31615.112307112540    1109.381275454914 
 4959000   -5530.512857057416   -5530.512857057416   24994.363891304223  -31620.956952607550    1096.080204245904 
 4960000   -5489.428268700896   -5489.428268700896   25053.295885669275  -31619.351145399523    1076.626991029350 
 4961000   -5543.681879189939   -5543.681879189939   24996.128925711382  -31619.756021978221    1079.945217076896 
 4962000   -5478.731613896663   -5478.731613896663   25082.243504779952  -31616.217626205951    1055.242507529339 
 4963000   -5493.626213638971   -5493.626213638971   25071.230987025607  -31622.723136134362    1057.865935469785 
 4964000   -5497.632169535907   -5497.632169535907   25106.883796915103  -31620.501156294788    1015.985189843776 
 4965000   -5469.802336445933   -5469.802336445933   25102.628300385444  -31615.815163526877    1043.384526695500 
 4966000   -5501.683457578787   -5501.683457578787   25024.409439074887  -31614.150458031570    1088.057561377898 
 4967000   -5496.908652133261   -5496.908652133261   25049.396892621247  -31620.721179694483    1074.415634939977 
 4968000   -5484.884676083311   -5484.884676083311   25031.889669962165  -31618.931519435631    1102.157173390158 
 4969000   -5462.679485135788   -5462.679485135788   25030.371807089101  -31616.122322945546    1123.071030720660 
 4970000   -5583.322046880236   -5583.322046880236   24911.203173650636  -31621.225330281715    1126.700109750842 
 4971000   -5531.648529927115   -5531.648529927115   24927.085456917022  -31620.963018332248    1162.229031488112 
 4972000   -5558.814695428537   -5558.814695428537   24949.122516117710  -31618.284851698209    1110.347640151962 
 4973000   -5600.841350164323   -5600.841350164323   24926.258915279395  -31619.578507200014    1092.478241756294 
 4974000   -5527.190309729380   -5527.190309729380   24919.059477975847  -31618.629934640932    1172.380146935708 
 4975000   -5555.467294436326   -5555.467294436326   24964.664802467025  -31623.467837739197    1103.335740835851 
 4976000   -5477.265126154925   -5477.265126154925   25123.824288365715  -31619.257768927724    1018.168354407079 
 4977000   -5490.383591894988   -5490.383591894988   25082.695233647162  -31621.794888419779    1048.716062877628 
 4978000   -5490.225991566305   -5490.225991566305   24987.734454565554  -31617.195098627031    1139.234652495172 
 4979000   -5486.904088926691   -5486.904088926691   25010.514762191706  -31620.395730032262    1122.976878913864 
 4980000   -5523.152757652868   -5523.152757652868   24973.325555982530  -31623.042931754346    1126.564618118949 
 4981000   -5559.327251907074   -5559.327251907074   24992.298849705690  -31622.278834161927    1070.652732549162 
 4982000   -5549.275148255972   -5549.275148255972   24945.250903501714  -31621.420536371905    1126.894484614216 
 4983000   -5516.198696259285   -5516.198696259285   25094.692433392345  -31619.634930326421    1008.743800674794 
 4984000   -5551.087617341524   -5551.087617341524   24983.797842855165  -31620.733928734946    1085.848468538259 
 4985000   -5491.185990067857   -5491.185990067857   25116.268647259141  -31618.426566822705    1010.971929495707 
 4986000   -5535.920392438307   -5535.920392438307   24950.134881710117  -31618.649257830064    1132.593983681644 
 4987000   -5453.180432747824   -5453.180432747824   25038.743449729889  -31621.516456927464    1129.592574449749 
 4988000   -5516.552575749163   -5516.552575749163   25082.091705983246  -31618.366732107253    1019.722450374847 
 4989000   -5549.502182148266   -5549.502182148266   25011.187803301815  -31621.578142911480    1060.888157461395 
 4990000   -5509.688471312420   -5509.688471312420   25027.784576954149  -31622.111971480448    1084.638923213877 
 4991000   -5510.953069394953   -5510.953069394953   25071.411071268201  -31619.435583944763    1037.071443281608 
 4992000   -5549.825852098729   -5549.825852098729   24920.488200434753  -31623.084868584192    1152.770816050710 
 4993000   -5502.732083071391   -5502.732083071391   25048.136886565917  -31622.141034234864    1071.272064597558 
 4994000   -5502.324734612928   -5502.324734612928   25048.284398496369  -31621.063639025946    1070.454505916646 
 4995000   -5484.477744167758   -5484.477744167758   25088.985179181160  -31621.673848568571    1048.210925219653 
 4996000   -5455.773087559439   -5455.773087559439   25108.992819971631  -31620.809288703786    1056.043381172714 
 4997000   -5533.108609916762   -5533.108609916762   24980.908887471476  -31618.214039001421    1104.196541613182 
 4998000   -5547.458285076085   -5547.458285076085   24938.793866794349  -31621.111020047003    1134.858868176565 
 4999000   -5494.176444868808   -5494.176444868808   24970.765050312519  -31618.291409630914    1153.349914449581 
 5000000   -5540.982810692130   -5540.982810692130   24944.350115172791  -31622.607770080005    1137.274844215091 
Loop time of 29.93 on 8 procs for 5001 steps with 1503 atoms

Performance: 14.437 ns/day, 1.662 hours/ns, 167.090 timesteps/s
98.9% CPU use with 8 MPI tasks x 1 OpenMP threads

MPI task timing breakdown:
Section |  min time  |  avg time  |  max time  |%varavg| %total
---------------------------------------------------------------
Pair    | 0          | 0          | 0          |   0.0 |  0.00
Bond    | 0          | 0          | 0          |   0.0 |  0.00
Kspace  | 0          | 0          | 0          |   0.0 |  0.00
Neigh   | 0          | 0          | 0          |   0.0 |  0.00
Comm    | 0          | 0          | 0          |   0.0 |  0.00
Output  | 0          | 0          | 0          |   0.0 |  0.00
Modify  | 0          | 0          | 0          |   0.0 |  0.00
Other   |            | 29.93      |            |       |100.00

Nlocal:    187.875 ave 198 max 173 min
Histogram: 1 0 1 0 0 1 2 0 2 1
Nghost:    4626.75 ave 4692 max 4573 min
Histogram: 2 1 1 0 0 1 0 1 1 1
Neighs:    67949.8 ave 71270 max 62039 min
Histogram: 1 0 1 0 0 1 0 2 1 2

Total # of neighbors = 543598
Ave neighs/atom = 361.675
Ave special neighs/atom = 2
Neighbor list builds = 0
Dangerous builds = 0
Total wall time: 0:01:30
