LAMMPS (3 Mar 2020)
  using 1 OpenMP thread(s) per MPI task
Reading data file ...
  orthogonal box = (0 0 0) to (24 24 24)
  2 by 2 by 2 MPI processor grid
  reading atoms ...
  1503 atoms
  scanning bonds ...
  2 = max bonds/atom
  scanning angles ...
  1 = max angles/atom
  reading bonds ...
  1002 bonds
  reading angles ...
  501 angles
Finding 1-2 1-3 1-4 neighbors ...
  special bond factors lj:   0          0          0         
  special bond factors coul: 0          0          0         
  2 = max # of 1-2 neighbors
  1 = max # of 1-3 neighbors
  1 = max # of 1-4 neighbors
  2 = max # of special neighbors
  special bonds CPU = 0.00158412 secs
  read_data CPU = 0.0074727 secs
Setting atom values ...
  1 settings made for charge
Setting atom values ...
  2 settings made for charge
Finding SHAKE clusters ...
  0 = # of size 2 clusters
  0 = # of size 3 clusters
  0 = # of size 4 clusters
  501 = # of frozen angles
  find clusters CPU = 0.000529744 secs
PPPM initialization ...
  using 12-bit tables for long-range coulomb (src/kspace.cpp:332)
  G vector (1/distance) = 0.315108
  grid = 24 24 24
  stencil order = 5
  estimated absolute RMS force accuracy = 0.00171042
  estimated relative force accuracy = 5.15088e-06
  using double precision MKL FFT
  3d grid and FFT values/proc = 6859 1728
Neighbor list info ...
  update every 1 steps, delay 10 steps, check yes
  max neighbors/atom: 2000, page size: 100000
  master list distance cutoff = 12
  ghost atom cutoff = 12
  binsize = 6, bins = 4 4 4
  3 neighbor lists, perpetual/occasional/extra = 3 0 0
  (1) pair lj/cut/coul/long, perpetual, skip from (3)
      attributes: half, newton on
      pair build: skip
      stencil: none
      bin: none
  (2) pair lj/cut/coul/long/soft, perpetual, skip from (3)
      attributes: half, newton on
      pair build: skip
      stencil: none
      bin: none
  (3) neighbor class addition, perpetual
      attributes: half, newton on
      pair build: half/bin/newton
      stencil: half/bin/3d/newton
      bin: standard
Per MPI rank memory allocation (min/avg/max) = 9.725 | 9.73 | 9.734 Mbytes
Step TotEng PotEng E_coul E_long E_vdwl 
       0   -5508.848783196943   -5508.848783196943   25213.048806426872  -31776.189185700485    1054.291596076667 
    1000   -5488.479585674890   -5488.479585674890   25241.653179120411  -31773.974395572564    1043.841630777265 
    2000   -5602.562077371018   -5602.562077371018   24955.164624253572  -31783.287842113932    1225.561140489343 
    3000   -5538.486772357759   -5538.486772357759   25110.870670057295  -31782.245367868807    1132.887925453751 
    4000   -5541.467706183190   -5541.467706183190   25110.610405402531  -31784.059844052419    1131.981732466696 
    5000   -5594.273722520054   -5594.273722520054   25147.469932950804  -31780.190822160086    1038.447166689229 
    6000   -5548.437030176381   -5548.437030176381   25135.114266247347  -31775.747836484155    1092.196540060424 
    7000   -5525.597900251603   -5525.597900251603   25145.122333856416  -31780.534182677875    1109.813948569853 
    8000   -5591.544815642384   -5591.544815642384   25075.843330202104  -31778.375114940842    1110.986969096352 
    9000   -5501.120897753910   -5501.120897753910   25193.691290685463  -31779.297749565238    1084.485561125867 
   10000   -5548.087528875876   -5548.087528875876   25168.034916590706  -31780.524926655602    1064.402481189020 
   11000   -5543.827361225780   -5543.827361225780   25146.766619020229  -31775.727812839195    1085.133832593184 
   12000   -5445.723511093507   -5445.723511093507   25266.951103549156  -31780.124783288833    1067.450168646174 
   13000   -5416.478468704936   -5416.478468704936   25297.562962733529  -31774.397779502022    1060.356348063559 
   14000   -5486.189169239617   -5486.189169239617   25319.382660396215  -31775.534308327144     969.962478691311 
   15000   -5471.545819557858   -5471.545819557858   25282.323812615159  -31780.622862574928    1026.753230401909 
   16000   -5519.943372224949   -5519.943372224949   25160.141679072123  -31781.018669945810    1100.933618648736 
   17000   -5523.696283131860   -5523.696283131860   25194.456082266181  -31778.307079034494    1060.154713636458 
   18000   -5526.038306614839   -5526.038306614839   25167.391047291607  -31778.737436831401    1085.308082924961 
   19000   -5520.126970606805   -5520.126970606805   25178.084768572204  -31779.562718573292    1081.350979394279 
   20000   -5498.579742310325   -5498.579742310325   25225.677159030522  -31780.680808765905    1056.423907425062 
   21000   -5515.001123549049   -5515.001123549049   25284.038929599767  -31777.511033270344     978.470980121529 
   22000   -5552.532342972037   -5552.532342972037   25167.369433853040  -31785.214688909888    1065.312912084811 
   23000   -5566.197263443039   -5566.197263443039   25084.944443067197  -31779.706062399640    1128.564355889406 
   24000   -5493.605132331519   -5493.605132331519   25255.430542344460  -31775.841468555169    1026.805793879182 
   25000   -5537.953081602209   -5537.953081602209   25204.064658799281  -31776.754597983119    1034.736857581631 
   26000   -5534.350870838098   -5534.350870838098   25186.110799636972  -31783.192561493848    1062.730891018782 
   27000   -5495.983685462197   -5495.983685462197   25188.496029068359  -31781.034629771115    1096.554915240560 
   28000   -5504.632311479167   -5504.632311479167   25213.545115305555  -31781.241411378163    1063.063984593446 
   29000   -5555.017674655897   -5555.017674655897   25118.097840372207  -31782.730354757339    1109.614839729237 
   30000   -5493.107385015359   -5493.107385015359   25277.911310116051  -31779.870246277798    1008.851551146391 
   31000   -5472.800477626919   -5472.800477626919   25170.892022875269  -31777.408278660976    1133.715778158788 
   32000   -5498.997176144134   -5498.997176144134   25261.907122983212  -31781.878745692957    1020.974446565608 
   33000   -5543.807287945285   -5543.807287945285   25147.961234181588  -31781.054396138450    1089.285874011577 
   34000   -5498.457010842707   -5498.457010842707   25195.341490275354  -31777.230804237690    1083.432303119624 
   35000   -5537.243090336397   -5537.243090336397   25171.673547040096  -31782.429906934714    1073.513269558219 
   36000   -5543.720773694553   -5543.720773694553   25107.169632492110  -31772.818031955852    1121.927625769186 
   37000   -5517.483776549263   -5517.483776549263   25103.614008383331  -31780.374205219367    1159.276420286778 
   38000   -5556.959409016614   -5556.959409016614   25133.778709020575  -31783.069011606272    1092.330893569085 
   39000   -5604.331552758995   -5604.331552758995   25030.834538772295  -31776.956473710074    1141.790382178785 
   40000   -5578.243399759765   -5578.243399759765   25072.115755473304  -31782.775458005719    1132.416302772646 
   41000   -5569.268565800441   -5569.268565800441   25090.886217324562  -31774.295869230435    1114.141086105435 
   42000   -5528.163829265482   -5528.163829265482   25205.852818295723  -31785.419142743689    1051.402495182487 
   43000   -5478.298110691878   -5478.298110691878   25246.066743725780  -31777.355088335538    1052.990233917884 
   44000   -5420.487131115471   -5420.487131115471   25277.250827518437  -31779.110852261307    1081.372893627400 
   45000   -5504.781574015411   -5504.781574015411   25193.352726562145  -31780.461820854853    1082.327520277303 
   46000   -5564.587069418383   -5564.587069418383   25183.990965037749  -31781.855844684902    1033.277810228774 
   47000   -5516.214688034372   -5516.214688034372   25172.882683216936  -31779.395626833131    1090.298255581823 
   48000   -5537.121757266741   -5537.121757266741   25165.566829833588  -31778.384433652369    1075.695846552042 
   49000   -5485.579693758405   -5485.579693758405   25213.363913959231  -31774.775463951246    1075.831856233611 
   50000   -5547.728225050516   -5547.728225050516   25171.722206920298  -31778.884363773417    1059.433931802609 
   51000   -5558.574504135937   -5558.574504135937   25084.336319793074  -31778.837459253740    1135.926635324730 
   52000   -5547.075762938704   -5547.075762938704   25192.812504058616  -31779.627718630145    1039.739451632821 
   53000   -5508.504147225485   -5508.504147225485   25253.449932339452  -31781.078063871424    1019.123984306488 
   54000   -5545.081965388614   -5545.081965388614   25193.008627193463  -31782.169796452654    1044.079203870576 
   55000   -5535.736709596938   -5535.736709596938   25148.133502935729  -31779.223857789890    1095.353645257223 
   56000   -5547.788116066356   -5547.788116066356   25150.621664993243  -31780.622044830936    1082.212263771338 
   57000   -5559.782501528505   -5559.782501528505   25165.025348417410  -31776.240216335231    1051.432366389318 
   58000   -5505.483625464298   -5505.483625464298   25246.145665695352  -31777.561473493366    1025.932182333716 
   59000   -5582.868285718232   -5582.868285718232   25082.949825255411  -31779.931106533739    1114.112995560093 
   60000   -5522.616210978344   -5522.616210978344   25177.571497094730  -31781.441448710000    1081.253740636927 
   61000   -5461.648248735073   -5461.648248735073   25199.666473148449  -31777.759954739744    1116.445232856223 
   62000   -5538.069851806227   -5538.069851806227   25172.689090159030  -31780.692024515669    1069.933082550411 
   63000   -5514.513836846676   -5514.513836846676   25185.545322436668  -31777.782873227949    1077.723713944603 
   64000   -5576.274730995763   -5576.274730995763   25096.138294451332  -31776.083582232335    1103.670556785244 
   65000   -5520.427188486214   -5520.427188486214   25141.441171243805  -31778.808847841221    1116.940488111204 
   66000   -5546.825756998896   -5546.825756998896   25096.567614455053  -31780.981536277661    1137.588164823711 
   67000   -5530.405717064685   -5530.405717064685   25174.930616911643  -31778.676877987265    1073.340544010938 
   68000   -5565.558943524891   -5565.558943524891   25025.128080221017  -31780.870363879138    1190.183340133230 
   69000   -5529.806612947054   -5529.806612947054   25156.849851813757  -31780.926322440268    1094.269857679459 
   70000   -5527.624457189970   -5527.624457189970   25152.001225039807  -31781.835745974215    1102.210063744435 
   71000   -5505.564656482169   -5505.564656482169   25202.357670368820  -31774.485686836168    1066.563359985177 
   72000   -5411.124507025444   -5411.124507025444   25304.991046247062  -31773.222772340421    1057.107219067916 
   73000   -5489.240295030144   -5489.240295030144   25216.573054635446  -31779.029917595853    1073.216567930267 
   74000   -5515.214556325118   -5515.214556325118   25174.305219944858  -31781.883299115965    1092.363522845989 
   75000   -5548.237671649535   -5548.237671649535   25099.738269136848  -31778.341688652836    1130.365747866460 
   76000   -5539.616662559532   -5539.616662559532   25153.997024291544  -31782.150883418886    1088.537196567808 
   77000   -5570.747723338965   -5570.747723338965   25129.170962053904  -31780.290506123754    1080.371820730883 
   78000   -5502.703038375050   -5502.703038375050   25186.980470890539  -31776.252014931011    1086.568505665420 
   79000   -5550.414330017753   -5550.414330017753   25110.579059866024  -31776.489967834121    1115.496577950342 
   80000   -5574.269829493838   -5574.269829493838   25051.010114760640  -31782.308648491169    1157.028704236688 
   81000   -5562.815026985987   -5562.815026985987   24999.593461327397  -31781.936806757476    1219.528318444094 
   82000   -5537.668377376864   -5537.668377376864   25104.271088882964  -31777.282118913408    1135.342652653582 
   83000   -5541.106008392628   -5541.106008392628   25188.195164549150  -31779.331064757032    1050.029891815254 
   84000   -5572.597756147406   -5572.597756147406   25153.308909026458  -31779.003533576575    1053.096868402708 
   85000   -5607.235159762604   -5607.235159762604   25061.979400897726  -31779.179029952069    1109.964469291742 
   86000   -5591.273311215351   -5591.273311215351   25092.586787124448  -31781.192376698029    1097.332278358231 
   87000   -5557.181918432496   -5557.181918432496   25119.714611479762  -31777.878500922081    1100.981971009823 
   88000   -5549.611934558514   -5549.611934558514   25146.755786208952  -31777.048846123322    1080.681125355855 
   89000   -5513.339358107885   -5513.339358107885   25199.287827419423  -31783.256218901202    1070.629033373888 
   90000   -5556.589457362283   -5556.589457362283   25081.204281927465  -31780.860670800841    1143.066931511096 
   91000   -5528.371381029356   -5528.371381029356   25111.288748834297  -31779.878106460335    1140.217976596683 
   92000   -5479.089403047914   -5479.089403047914   25241.577573150458  -31780.251858329666    1059.584882131293 
   93000   -5457.018955446238   -5457.018955446238   25268.640735684225  -31770.396694142535    1044.737003012075 
   94000   -5548.616503185385   -5548.616503185385   25126.271608877032  -31780.193693082849    1105.305581020438 
   95000   -5549.576077190050   -5549.576077190050   25114.588267076160  -31783.564317323955    1119.399973057742 
   96000   -5527.368626360323   -5527.368626360323   25161.730219820805  -31779.919087114446    1090.820240933315 
   97000   -5539.921000591043   -5539.921000591043   25134.021261304097  -31779.572151742657    1105.629889847519 
   98000   -5517.923010088049   -5517.923010088049   25172.940131393636  -31782.246117619627    1091.382976137937 
   99000   -5575.242403617896   -5575.242403617896   25104.123788074776  -31781.848794428679    1102.482602736006 
  100000   -5513.427264364680   -5513.427264364680   25141.651458059794  -31780.950005082439    1125.871282657965 
  101000   -5569.797891521648   -5569.797891521648   25125.472742076265  -31781.492312919570    1086.221679321661 
  102000   -5572.348444873096   -5572.348444873096   25064.059873557038  -31783.846169692973    1147.437851262838 
  103000   -5564.400689378352   -5564.400689378352   25119.231137812501  -31781.946009982228    1098.314182791373 
  104000   -5546.007079688905   -5546.007079688905   25124.576367372265  -31779.532941591231    1108.949494530064 
  105000   -5531.509690781695   -5531.509690781695   25164.257278999081  -31783.030307046516    1087.263337265738 
  106000   -5563.965338076490   -5563.965338076490   25154.252297959378  -31781.085084081016    1062.867448045145 
  107000   -5569.727732720294   -5569.727732720294   25098.020124337214  -31779.822830365531    1112.074973308026 
  108000   -5532.812454814481   -5532.812454814481   25214.356237368607  -31778.933735485665    1031.765043302572 
  109000   -5511.379625978956   -5511.379625978956   25171.674816477909  -31776.805215425407    1093.750772968540 
  110000   -5557.511923128048   -5557.511923128048   25136.158097771160  -31781.588289644398    1087.918268745191 
  111000   -5527.400355236619   -5527.400355236619   25119.222662304353  -31780.763696371192    1134.140678830215 
  112000   -5528.745289094131   -5528.745289094131   25158.759332400688  -31777.742705781235    1090.238084286414 
  113000   -5509.386546764948   -5509.386546764948   25240.776410259510  -31776.423193014372    1026.260235989912 
  114000   -5544.315374896272   -5544.315374896272   25121.122390014221  -31778.971189207808    1113.533424297321 
  115000   -5583.654775305600   -5583.654775305600   25135.678319035989  -31778.597237040929    1059.264142699341 
  116000   -5514.588143396519   -5514.588143396519   25208.195297146871  -31784.356530716403    1061.573090173014 
  117000   -5571.975765895648   -5571.975765895648   25067.702057314054  -31781.611593102702    1141.933769893004 
  118000   -5570.880137278302   -5570.880137278302   25088.180600198546  -31785.267254359671    1126.206516882819 
  119000   -5525.637293412317   -5525.637293412317   25194.236317760522  -31780.037876823731    1060.164265650892 
  120000   -5580.722210559441   -5580.722210559441   25082.840422821017  -31777.924260846245    1114.361627465780 
  121000   -5522.981319649622   -5522.981319649622   25114.818108404339  -31778.579854623356    1140.780426569399 
  122000   -5514.993156321685   -5514.993156321685   25224.817890841285  -31784.112711277303    1044.301664114334 
  123000   -5532.581874142266   -5532.581874142266   25070.235624859721  -31776.376330274168    1173.558831272181 
  124000   -5532.573168454099   -5532.573168454099   25106.769971322166  -31782.421784346574    1143.078644570311 
  125000   -5524.695967318530   -5524.695967318530   25187.970289447370  -31782.447663510076    1069.781406744176 
  126000   -5538.298421736941   -5538.298421736941   25066.447640420851  -31780.155710485971    1175.409648328180 
  127000   -5527.588366018368   -5527.588366018368   25095.296122446074  -31777.858776532325    1154.974288067884 
  128000   -5558.537143710499   -5558.537143710499   25086.802188810638  -31778.167277015498    1132.827944494360 
  129000   -5511.423137655114   -5511.423137655114   25245.203628755648  -31777.297478894001    1020.670712483237 
  130000   -5596.074479386243   -5596.074479386243   25061.536570889384  -31778.045418121448    1120.434367845819 
  131000   -5565.293564608786   -5565.293564608786   25091.640458161779  -31779.146056143305    1122.212033372742 
  132000   -5574.517331653853   -5574.517331653853   25124.710439667891  -31781.283677434913    1082.055906113166 
  133000   -5559.864614390717   -5559.864614390717   25098.920399405979  -31779.180683222236    1120.395669425541 
  134000   -5547.563895030824   -5547.563895030824   25066.253756998383  -31775.440962666715    1161.623310637509 
  135000   -5546.316099085514   -5546.316099085514   25109.555409759196  -31779.918590287827    1124.047081443112 
  136000   -5544.504014929847   -5544.504014929847   25066.498940596954  -31779.164811548006    1168.161856021203 
  137000   -5516.415184736481   -5516.415184736481   25159.766231728110  -31783.021994546958    1106.840578082368 
  138000   -5521.288756559898   -5521.288756559898   25138.851176814525  -31778.483428653966    1118.343495279548 
  139000   -5500.559164232745   -5500.559164232745   25175.325038721294  -31780.628249176905    1104.744046222864 
  140000   -5543.359762916763   -5543.359762916763   25120.932427134416  -31783.317132696902    1119.024942645725 
  141000   -5577.717200040999   -5577.717200040999   25071.164876394832  -31777.398979172562    1128.516902736733 
  142000   -5494.629754376947   -5494.629754376947   25206.340510359743  -31781.450020601529    1080.479755864840 
  143000   -5599.743948049036   -5599.743948049036   25061.045536033260  -31781.020713538113    1120.231229455812 
  144000   -5520.903810112672   -5520.903810112672   25111.005316489904  -31781.864112411073    1149.954985808499 
  145000   -5559.729611380764   -5559.729611380764   25142.430187272254  -31781.080320893692    1078.920522240674 
  146000   -5492.472707604251   -5492.472707604251   25245.244704712419  -31779.462889553321    1041.745477236655 
  147000   -5577.489773756090   -5577.489773756090   25110.189357789081  -31783.158362373437    1095.479230828267 
  148000   -5604.772574526469   -5604.772574526469   25083.627962772240  -31783.555604365509    1095.155067066803 
  149000   -5492.175902657746   -5492.175902657746   25240.023416866159  -31778.524403606141    1046.325084082238 
  150000   -5528.237114456784   -5528.237114456784   25160.236345235513  -31778.406451143630    1089.932991451336 
  151000   -5531.360866380233   -5531.360866380233   25125.578367504826  -31776.039641415158    1119.100407530097 
  152000   -5516.489600629280   -5516.489600629280   25189.978302729120  -31778.636960654694    1072.169057296287 
  153000   -5503.621057300050   -5503.621057300050   25179.770334831672  -31779.261568758120    1095.870176626404 
  154000   -5532.675161244006   -5532.675161244006   25154.207216529998  -31774.062288395718    1087.179910621714 
  155000   -5601.195100869376   -5601.195100869376   25023.088437540908  -31776.401262572861    1152.117724162575 
  156000   -5472.453037639156   -5472.453037639156   25252.125057869031  -31780.717784345365    1056.139688837177 
  157000   -5492.889900870396   -5492.889900870396   25213.945768786620  -31780.294128481750    1073.458458824740 
  158000   -5508.300884378838   -5508.300884378838   25173.676570482799  -31781.132984626642    1099.155529765005 
  159000   -5543.582697080223   -5543.582697080223   25082.150761156809  -31778.758790116204    1153.025331879175 
  160000   -5573.279037052369   -5573.279037052369   25094.613965819117  -31779.970174239385    1112.077171367896 
  161000   -5606.294969147461   -5606.294969147461   25055.351166453023  -31785.427985999489    1123.781850399000 
  162000   -5556.989734304309   -5556.989734304309   25134.897666834913  -31783.952889503926    1092.065488364703 
  163000   -5497.361563370352   -5497.361563370352   25277.994363149126  -31780.650971709962    1005.295045190486 
  164000   -5554.850534171135   -5554.850534171135   25230.879089014219  -31783.283368779343     997.553745593988 
  165000   -5491.044623137368   -5491.044623137368   25266.672363004764  -31778.131007608525    1020.414021466393 
  166000   -5484.722516380916   -5484.722516380916   25237.691505385894  -31781.685965257475    1059.271943490659 
  167000   -5485.922975265883   -5485.922975265883   25197.870180597980  -31776.483343437732    1092.690187573870 
  168000   -5561.123106556515   -5561.123106556515   25090.075217074660  -31783.731264505255    1132.532940874078 
  169000   -5572.117435673710   -5572.117435673710   25111.708853155618  -31781.566270211781    1097.739981382452 
  170000   -5546.753089439993   -5546.753089439993   25138.230519989931  -31779.271555534677    1094.287946104754 
  171000   -5543.003043303488   -5543.003043303488   25111.337740859992  -31778.750668744167    1124.409884580687 
  172000   -5497.034038411362   -5497.034038411362   25249.508694472566  -31781.592371815517    1035.049638931594 
  173000   -5496.586482889335   -5496.586482889335   25141.778856120327  -31779.203952346241    1140.838613336576 
  174000   -5540.698516588003   -5540.698516588003   25058.222837835106  -31777.791316803421    1178.869962380311 
  175000   -5548.171368563479   -5548.171368563479   25152.859111141435  -31774.435612511752    1073.405132806834 
  176000   -5561.538332495631   -5561.538332495631   25105.171984900022  -31779.925485116495    1113.215167720848 
  177000   -5518.185633742105   -5518.185633742105   25179.745583595184  -31779.594735502731    1081.663518165443 
  178000   -5493.918829471499   -5493.918829471499   25224.243947877330  -31778.101601440540    1059.938824091708 
  179000   -5559.456288534879   -5559.456288534879   25099.887077808431  -31778.979445453519    1119.636079110206 
  180000   -5509.565552187010   -5509.565552187010   25193.523038014893  -31776.577625933107    1073.489035731201 
  181000   -5541.749216337601   -5541.749216337601   25167.278391135544  -31779.775167740412    1070.747560267266 
  182000   -5504.938441242793   -5504.938441242793   25210.530504243361  -31778.300996706599    1062.832051220446 
  183000   -5540.098827239981   -5540.098827239981   25153.786065485674  -31778.858526456028    1084.973633730376 
  184000   -5509.576559004232   -5509.576559004232   25174.151612732701  -31779.517870981046    1095.789699244112 
  185000   -5522.139544641166   -5522.139544641166   25150.554114333452  -31781.546148611207    1108.852489636588 
  186000   -5526.884209866919   -5526.884209866919   25187.854467878387  -31779.580277202884    1064.841599457574 
  187000   -5521.178378222270   -5521.178378222270   25144.856358493154  -31778.407884414941    1112.373147699514 
  188000   -5548.089310002819   -5548.089310002819   25164.206256857364  -31779.029334339117    1066.733767478938 
  189000   -5490.754609577441   -5490.754609577441   25151.110397766111  -31779.995216711453    1138.130209367900 
  190000   -5513.453738355238   -5513.453738355238   25221.517139426091  -31782.513002850785    1047.542125069452 
  191000   -5529.763060834866   -5529.763060834866   25125.682917797680  -31777.279961092139    1121.833982459590 
  192000   -5557.621005233294   -5557.621005233294   25103.460018381993  -31778.611154916536    1117.530131301247 
  193000   -5528.305110631700   -5528.305110631700   25187.754123712693  -31778.492597387554    1062.433363043160 
  194000   -5461.170763718317   -5461.170763718317   25294.068950404493  -31779.181499918774    1023.941785795961 
  195000   -5511.461295593734   -5511.461295593734   25148.378257923880  -31777.554288176085    1117.714734658472 
  196000   -5557.754164617603   -5557.754164617603   25130.576807883095  -31778.256337769242    1089.925365268549 
  197000   -5568.287405487812   -5568.287405487812   25099.561040894692  -31779.780259606345    1111.931813223843 
  198000   -5592.834259454085   -5592.834259454085   25055.720647279446  -31780.067168604848    1131.512261871318 
  199000   -5564.797849174629   -5564.797849174629   25087.947780365659  -31778.310133826835    1125.564504286547 
  200000   -5550.215937951678   -5550.215937951678   25103.732101469450  -31778.768210720864    1124.820171299736 
  201000   -5564.593253107723   -5564.593253107723   25147.962977078125  -31784.438230684962    1071.882000499115 
  202000   -5549.587155143512   -5549.587155143512   25133.234852949172  -31779.404734784923    1096.582726692243 
  203000   -5564.025138769328   -5564.025138769328   25139.509829371324  -31781.613180934393    1078.078212793740 
  204000   -5485.344574826097   -5485.344574826097   25226.492531407661  -31780.572942025712    1068.735835791957 
  205000   -5550.937634027090   -5550.937634027090   25108.039396046348  -31777.257754759798    1118.280724686363 
  206000   -5576.033106936276   -5576.033106936276   25159.603164361957  -31782.437340942488    1046.801069644252 
  207000   -5531.093396733682   -5531.093396733682   25197.704845345681  -31778.865632300709    1050.067390221344 
  208000   -5543.152499168613   -5543.152499168613   25129.246067694414  -31775.985470273026    1103.586903410000 
  209000   -5540.874664527608   -5540.874664527608   25116.718147096301  -31781.937092994849    1124.344281370938 
  210000   -5576.261059648205   -5576.261059648205   25102.356323343236  -31782.321837731644    1103.704454740207 
  211000   -5493.540666548863   -5493.540666548863   25221.118014815114  -31777.358033241544    1062.699351877569 
  212000   -5510.634807309139   -5510.634807309139   25138.127163214594  -31778.614335741822    1129.852365218090 
  213000   -5511.823550658588   -5511.823550658588   25191.541704329102  -31780.266568660158    1076.901313672466 
  214000   -5519.653698970804   -5519.653698970804   25173.952349222385  -31782.136083013531    1088.530034820340 
  215000   -5591.445166804075   -5591.445166804075   25050.859966168457  -31778.977170371320    1136.672037398788 
  216000   -5557.133435988839   -5557.133435988839   25137.985367641399  -31782.730609000697    1087.611805370455 
  217000   -5560.191060357407   -5560.191060357407   25094.187545650791  -31781.718878787622    1127.340272779421 
  218000   -5601.190733022064   -5601.190733022064   25042.926150959451  -31781.593600674780    1137.476716693267 
  219000   -5535.836042385708   -5535.836042385708   25147.028074614143  -31780.607878127397    1097.743761127547 
  220000   -5517.669887641739   -5517.669887641739   25218.374647532502  -31781.135591302071    1045.091056127835 
  221000   -5494.755290900921   -5494.755290900921   25176.104366420928  -31784.465911909392    1113.606254587546 
  222000   -5536.737297575339   -5536.737297575339   25211.176261000895  -31778.075572041082    1030.162013464843 
  223000   -5491.071109499750   -5491.071109499750   25245.459465625001  -31781.021665279408    1044.491090154654 
  224000   -5464.909257937681   -5464.909257937681   25275.237760678363  -31775.467516779085    1035.320498163042 
  225000   -5517.905800922847   -5517.905800922847   25093.651936781862  -31776.497595304205    1164.939857599496 
  226000   -5571.389296029683   -5571.389296029683   25106.692482250062  -31780.588179960385    1102.506401680638 
  227000   -5591.652197350424   -5591.652197350424   25112.915601464265  -31776.112682350715    1071.544883536028 
  228000   -5610.157363746188   -5610.157363746188   25001.064652273351  -31779.769344223201    1168.547328203669 
  229000   -5537.301271181153   -5537.301271181153   25117.655591515657  -31778.730230208083    1123.773367511274 
  230000   -5561.640345795433   -5561.640345795433   25136.834262518027  -31781.857340893268    1083.382732579814 
  231000   -5619.564932321213   -5619.564932321213   25035.673907469743  -31783.051334567470    1127.812494776513 
  232000   -5551.454023988175   -5551.454023988175   25085.837308407958  -31781.872554811707    1144.581222415575 
  233000   -5541.894941483901   -5541.894941483901   25167.011033189381  -31780.272546515822    1071.366571842537 
  234000   -5515.073302615900   -5515.073302615900   25217.903706460951  -31777.571416299943    1044.594407223090 
  235000   -5513.964400672434   -5513.964400672434   25123.649186251743  -31778.753663151958    1141.140076227781 
  236000   -5464.313431168535   -5464.313431168535   25213.220582584181  -31777.907617931276    1100.373604178562 
  237000   -5469.915784181208   -5469.915784181208   25215.399227572263  -31776.491122342573    1091.176110589102 
  238000   -5518.983094846491   -5518.983094846491   25147.196972770296  -31779.306823276631    1113.126755659836 
  239000   -5504.845518463680   -5504.845518463680   25201.537593691719  -31779.155966191833    1072.772854036436 
  240000   -5510.630818913025   -5510.630818913025   25145.488897790809  -31778.347480267825    1122.227763563986 
  241000   -5496.372712774097   -5496.372712774097   25178.453492246284  -31778.372530347293    1103.546325326911 
  242000   -5523.356054855089   -5523.356054855089   25158.359995252518  -31778.647575213683    1096.931525106073 
  243000   -5525.187308258162   -5525.187308258162   25119.682382498639  -31784.296596992270    1139.426906235464 
  244000   -5521.686612281002   -5521.686612281002   25195.455978373677  -31777.949139400967    1060.806548746291 
  245000   -5575.942328148831   -5575.942328148831   25082.240815181176  -31781.306247995140    1123.123104665132 
  246000   -5558.283701413304   -5558.283701413304   25121.159885439425  -31781.233561449168    1101.789974596438 
  247000   -5535.148633618213   -5535.148633618213   25054.827778366325  -31780.559602953905    1190.583190969366 
  248000   -5585.530361334484   -5585.530361334484   25141.215063634045  -31782.611660262864    1055.866235294333 
  249000   -5498.142314969296   -5498.142314969296   25134.563585146439  -31782.915567396642    1150.209667280906 
  250000   -5577.962412278735   -5577.962412278735   25062.172412837033  -31779.462472940169    1139.327647824404 
  251000   -5606.375600795745   -5606.375600795745   25022.272242625811  -31779.457857425488    1150.810014003931 
  252000   -5520.072672035189   -5520.072672035189   25134.090245473530  -31776.526328719410    1122.363411210692 
  253000   -5505.630495789504   -5505.630495789504   25194.125010463940  -31780.904606023967    1081.149099770525 
  254000   -5520.826995076630   -5520.826995076630   25191.688491669258  -31780.667791064792    1068.152304318908 
  255000   -5507.553313610984   -5507.553313610984   25184.170812741690  -31781.403251534979    1089.679125182307 
  256000   -5494.555417132869   -5494.555417132869   25225.940986820464  -31778.947451444219    1058.451047490884 
  257000   -5528.389623098134   -5528.389623098134   25101.292914852231  -31776.602927635977    1146.920389685612 
  258000   -5581.208968991199   -5581.208968991199   25047.285016287788  -31783.282793938044    1154.788808659060 
  259000   -5473.500857295945   -5473.500857295945   25235.150119605110  -31781.547728537658    1072.896751636605 
  260000   -5551.396905954640   -5551.396905954640   25127.321359114161  -31780.299073200822    1101.580808132026 
  261000   -5533.399125037005   -5533.399125037005   25174.603990554209  -31779.890459574064    1071.887343982850 
  262000   -5456.790900247212   -5456.790900247212   25347.053536749245  -31777.733471851378     973.889034854920 
  263000   -5519.607824167000   -5519.607824167000   25107.408340478592  -31776.291688286630    1149.275523641035 
  264000   -5529.180409695222   -5529.180409695222   25127.072614597822  -31780.066370040753    1123.813345747709 
  265000   -5562.188651940432   -5562.188651940432   25143.271087312358  -31777.263410293894    1071.803671041107 
  266000   -5546.767211666676   -5546.767211666676   25140.063230349497  -31774.367917814732    1087.537475798558 
  267000   -5539.231827784159   -5539.231827784159   25175.726156146786  -31779.967003375190    1065.009019444245 
  268000   -5548.532089039501   -5548.532089039501   25129.500939573551  -31782.677026895413    1104.643998282362 
  269000   -5534.512390102871   -5534.512390102871   25089.451138672197  -31778.407980221400    1154.444451446330 
  270000   -5492.785945692605   -5492.785945692605   25098.099396000885  -31775.872726959744    1184.987385266250 
  271000   -5510.487239409689   -5510.487239409689   25195.924144954712  -31779.590460015796    1073.179075651392 
  272000   -5477.457280014420   -5477.457280014420   25268.298925323852  -31775.006358580929    1029.250153242652 
  273000   -5506.656178137047   -5506.656178137047   25243.583829539046  -31781.277468378605    1031.037460702513 
  274000   -5559.919707537370   -5559.919707537370   25116.001028149643  -31777.725540874071    1101.804805187059 
  275000   -5554.279222409106   -5554.279222409106   25065.757366190093  -31780.027379250259    1159.990790651063 
  276000   -5542.747200775633   -5542.747200775633   25189.350072955873  -31783.441482790971    1051.344209059464 
  277000   -5575.121637241249   -5575.121637241249   25075.490818136008  -31781.450399999590    1130.837944622329 
  278000   -5556.826086778248   -5556.826086778248   25130.219024447309  -31783.991289616399    1096.946178390846 
  279000   -5561.404538561761   -5561.404538561761   25069.079219855979  -31778.470283419476    1147.986525001737 
  280000   -5549.220406623324   -5549.220406623324   25135.009295830539  -31782.501759132887    1098.272056679024 
  281000   -5469.534034034885   -5469.534034034885   25251.594181801775  -31783.581632055757    1062.453416219098 
  282000   -5550.700876138981   -5550.700876138981   25080.481408907337  -31779.214132730325    1148.031847684003 
  283000   -5510.084415968780   -5510.084415968780   25126.522022217174  -31780.199299804925    1143.592861618966 
  284000   -5526.880392249561   -5526.880392249561   25069.767708015734  -31776.479073896156    1179.830973630865 
  285000   -5527.169561590672   -5527.169561590672   25171.303952754639  -31776.570236039093    1078.096721693785 
  286000   -5550.513692761069   -5550.513692761069   25096.748446909154  -31777.502918253998    1130.240778583779 
  287000   -5522.956125059889   -5522.956125059889   25152.262436053596  -31777.585069719738    1102.366508606249 
  288000   -5500.848761832698   -5500.848761832698   25162.029265578574  -31777.888893594874    1115.010866183601 
  289000   -5578.065418755559   -5578.065418755559   25067.119707418617  -31779.809174534807    1134.624048360624 
  290000   -5567.569490519119   -5567.569490519119   25052.280708373906  -31777.113505254045    1157.263306361020 
  291000   -5524.761466573607   -5524.761466573607   25161.703573106177  -31777.940211766734    1091.475172086953 
  292000   -5494.262354795079   -5494.262354795079   25181.240437304390  -31778.604693803922    1103.101901704453 
  293000   -5617.656945397335   -5617.656945397335   24924.471350153734  -31780.646406750977    1238.518111199911 
  294000   -5537.633148398745   -5537.633148398745   25083.046126041361  -31775.474367014358    1154.795092574254 
  295000   -5529.574716997438   -5529.574716997438   25199.873990216482  -31776.024513319142    1046.575806105225 
  296000   -5556.944179226623   -5556.944179226623   25134.788969657602  -31779.565039124813    1087.831890240591 
  297000   -5629.577294565461   -5629.577294565461   24975.463856166592  -31774.501963230286    1169.460812498236 
  298000   -5544.307568667842   -5544.307568667842   25105.697314147474  -31779.175302210948    1129.170419395628 
  299000   -5533.016066555367   -5533.016066555367   25181.423921727037  -31780.238894399376    1065.798906116972 
  300000   -5583.725220737455   -5583.725220737455   25160.454263454907  -31782.620247875515    1038.440763683154 
  301000   -5540.231187440775   -5540.231187440775   25180.545110464234  -31774.881699293455    1054.105401388447 
  302000   -5484.603122432007   -5484.603122432007   25271.840095877658  -31777.684884536775    1021.241666227111 
  303000   -5471.784404262740   -5471.784404262740   25296.435272135590  -31777.370122176799    1009.150445778470 
  304000   -5551.078710743932   -5551.078710743932   25106.921945422684  -31782.310011309401    1124.309355142785 
  305000   -5569.176388301319   -5569.176388301319   25092.212740109084  -31777.890524095470    1116.501395685063 
  306000   -5584.366135104348   -5584.366135104348   25082.776319983415  -31782.099649128446    1114.957194040684 
  307000   -5556.903628214412   -5556.903628214412   25105.545358832296  -31781.593345932870    1119.144358886159 
  308000   -5522.454952237818   -5522.454952237818   25252.453761413981  -31781.402854107142    1006.494140455341 
  309000   -5481.217611316606   -5481.217611316606   25238.885762967155  -31775.698993414389    1055.595619130627 
  310000   -5489.128367971436   -5489.128367971436   25232.905317276029  -31776.605933459836    1054.572248212372 
  311000   -5443.279535630878   -5443.279535630878   25301.511161797305  -31777.183086022094    1032.392388593913 
  312000   -5459.706710056293   -5459.706710056293   25285.147782204484  -31778.746936931559    1033.892444670780 
  313000   -5500.066718439964   -5500.066718439964   25213.984540255136  -31779.670406232479    1065.619147537377 
  314000   -5526.977041859369   -5526.977041859369   25228.240741356913  -31774.862255099175    1019.644471882892 
  315000   -5519.792273413237   -5519.792273413237   25184.803826707197  -31782.319788978348    1077.723688857914 
  316000   -5475.105037452216   -5475.105037452216   25234.452554362648  -31780.479535821993    1070.921944007132 
  317000   -5510.408074263247   -5510.408074263247   25120.284386388943  -31773.428563385201    1142.736102733013 
  318000   -5536.163051223601   -5536.163051223601   25134.137379000611  -31777.013426764228    1106.712996540017 
  319000   -5549.605016476980   -5549.605016476980   25077.039143722504  -31779.205345873608    1152.561185674128 
  320000   -5503.736160561930   -5503.736160561930   25235.219117634391  -31781.363575982010    1042.408297785687 
  321000   -5496.014828090705   -5496.014828090705   25144.592748216106  -31781.408508694589    1140.800932387780 
  322000   -5608.777702615425   -5608.777702615425   25117.740614188897  -31782.857407292155    1056.339090487831 
  323000   -5548.433911379499   -5548.433911379499   25100.569825285922  -31778.977211051097    1129.973474385674 
  324000   -5502.870162278472   -5502.870162278472   25198.802884584500  -31777.970114836316    1076.297067973348 
  325000   -5535.006145592004   -5535.006145592004   25184.287448717754  -31781.526014758034    1062.232420448277 
  326000   -5576.201650948835   -5576.201650948835   25041.163606608054  -31777.764350703776    1160.399093146890 
  327000   -5506.600665056423   -5506.600665056423   25255.360998191314  -31779.773575081741    1017.811911834003 
  328000   -5526.355075511496   -5526.355075511496   25206.906739995073  -31780.937814163914    1047.675998657346 
  329000   -5534.285613791417   -5534.285613791417   25159.118917865133  -31784.115376003607    1090.710844347055 
  330000   -5542.996484149229   -5542.996484149229   25167.084403328459  -31776.464872719800    1066.383985242114 
  331000   -5552.363527456630   -5552.363527456630   25168.105044286578  -31783.167595033003    1062.699023289794 
  332000   -5485.917117056404   -5485.917117056404   25305.132374919471  -31780.789876044440     989.740384068571 
  333000   -5554.602010329905   -5554.602010329905   25156.636887005287  -31779.458387566454    1068.219490231266 
  334000   -5479.494186915446   -5479.494186915446   25236.811680762701  -31779.297157726873    1062.991290048730 
  335000   -5533.660853728194   -5533.660853728194   25100.533332303210  -31775.618456131291    1141.424270099893 
  336000   -5520.043952015883   -5520.043952015883   25183.782382202913  -31777.899473427751    1074.073139208958 
  337000   -5516.586862758180   -5516.586862758180   25203.264225441919  -31780.567063652041    1060.715975451943 
  338000   -5597.297095633716   -5597.297095633716   25082.278711195377  -31782.707034924737    1103.131228095643 
  339000   -5459.310057478488   -5459.310057478488   25246.634745826675  -31774.993811098004    1069.049007792840 
  340000   -5518.862716236123   -5518.862716236123   25172.221836908342  -31780.434252101204    1089.349698956740 
  341000   -5546.672483180235   -5546.672483180235   25180.190512027111  -31779.036046058303    1052.173050850963 
  342000   -5601.440840764160   -5601.440840764160   25109.559463006291  -31780.431581785531    1069.431278015075 
  343000   -5530.969025339888   -5530.969025339888   25142.091922854277  -31783.598693423206    1110.537745229047 
  344000   -5529.063427607533   -5529.063427607533   25225.422823368921  -31782.908546960021    1028.422295983566 
  345000   -5484.484437309486   -5484.484437309486   25270.913382738639  -31778.358638698723    1022.960818650594 
  346000   -5523.532122278790   -5523.532122278790   25131.624637153702  -31781.558140311921    1126.401380879434 
  347000   -5523.630757471441   -5523.630757471441   25221.059442035388  -31778.898700688838    1034.208501182010 
  348000   -5488.627782400155   -5488.627782400155   25196.707915596249  -31780.612695638734    1095.276997642329 
  349000   -5483.139421592408   -5483.139421592408   25200.712371107144  -31781.650095864316    1097.798303164765 
  350000   -5563.744188579436   -5563.744188579436   25057.825761985609  -31779.966264744271    1158.396314179229 
  351000   -5456.436322300400   -5456.436322300400   25159.862671707255  -31777.028413772216    1160.729419764559 
  352000   -5491.756985140666   -5491.756985140666   25224.524983973286  -31779.726056534877    1063.444087420927 
  353000   -5517.011134010416   -5517.011134010416   25248.927784205502  -31781.596356977519    1015.657438761599 
  354000   -5561.158047081830   -5561.158047081830   25116.444237707627  -31779.503435810824    1101.901151021370 
  355000   -5584.954653944907   -5584.954653944907   25089.697244691219  -31777.547438586753    1102.895539950632 
  356000   -5543.572285974828   -5543.572285974828   25091.123323847081  -31774.262676304279    1139.567066482368 
  357000   -5473.814419254810   -5473.814419254810   25235.975897236964  -31781.763084063838    1071.972767572068 
  358000   -5541.308131529036   -5541.308131529036   25179.237633779587  -31777.887735651024    1057.341970342404 
  359000   -5530.165888901221   -5530.165888901221   25152.952413202765  -31779.484680344274    1096.366378240284 
  360000   -5508.611689209909   -5508.611689209909   25126.207551841035  -31779.294694875818    1144.475453824878 
  361000   -5522.792283884875   -5522.792283884875   25217.504623012326  -31780.032393443016    1039.735486545813 
  362000   -5577.214805051935   -5577.214805051935   25116.426779508573  -31782.184964616161    1088.543380055660 
  363000   -5550.113188750904   -5550.113188750904   25191.347854727363  -31778.344520648330    1036.883477170058 
  364000   -5551.861215060562   -5551.861215060562   25113.661350507995  -31780.956022329687    1115.433456761129 
  365000   -5507.592569091998   -5507.592569091998   25237.162542448648  -31778.032033694799    1033.276922154149 
  366000   -5561.600916440209   -5561.600916440209   25105.507114146687  -31781.310887885502    1114.202857298608 
  367000   -5578.763525104696   -5578.763525104696   25100.290714781564  -31782.571861364420    1103.517621478164 
  368000   -5479.087936450436   -5479.087936450436   25171.126006904902  -31779.978880677991    1129.764937322651 
  369000   -5560.898507377991   -5560.898507377991   25134.339813826744  -31782.767876503556    1087.529555298815 
  370000   -5525.313593021448   -5525.313593021448   25148.839368030058  -31779.467210472416    1105.314249420907 
  371000   -5502.907942102855   -5502.907942102855   25196.840742772620  -31780.544144573512    1080.795459698041 
  372000   -5582.939330885045   -5582.939330885045   25096.916280187019  -31780.133368520477    1100.277757448417 
  373000   -5579.216464788788   -5579.216464788788   25127.550278548148  -31782.886789061409    1076.120045724477 
  374000   -5532.147313076453   -5532.147313076453   25168.018953837061  -31777.335243401067    1077.168976487551 
  375000   -5522.124871218795   -5522.124871218795   25200.520214576176  -31778.493055112322    1055.847969317353 
  376000   -5498.630613561894   -5498.630613561894   25148.534840012351  -31773.599158528170    1126.433704953923 
  377000   -5559.606630971386   -5559.606630971386   25132.950927779042  -31784.392613966149    1091.835055215726 
  378000   -5558.717274696679   -5558.717274696679   25045.035971408237  -31774.371434510751    1170.618188405835 
  379000   -5481.765149707542   -5481.765149707542   25234.290873578317  -31775.679767764224    1059.623744478370 
  380000   -5526.332068580828   -5526.332068580828   25183.063398510880  -31779.399025029415    1070.003557937704 
  381000   -5480.741853949632   -5480.741853949632   25267.033218509892  -31781.574227790868    1033.799155331344 
  382000   -5533.938125299435   -5533.938125299435   25143.040136771790  -31776.714028339142    1099.735766267913 
  383000   -5453.171155147345   -5453.171155147345   25267.007138225650  -31779.401782714638    1059.223489341645 
  384000   -5525.432147908010   -5525.432147908010   25185.292036982428  -31780.197669751469    1069.473484861031 
  385000   -5530.692427840495   -5530.692427840495   25178.215956592579  -31784.472381585281    1075.563997152206 
  386000   -5536.136361629200   -5536.136361629200   25184.813322202190  -31780.563999839698    1059.614316008309 
  387000   -5588.432647214482   -5588.432647214482   25044.327028084703  -31778.325437080814    1145.565761781628 
  388000   -5541.554485078672   -5541.554485078672   25102.952884549290  -31779.081958768413    1134.574589140453 
  389000   -5574.029983968325   -5574.029983968325   25036.653142861298  -31779.944500439080    1169.261373609456 
  390000   -5534.640747906666   -5534.640747906666   25125.507602842921  -31777.602700577048    1117.454349827459 
  391000   -5554.313578669808   -5554.313578669808   25174.170678496852  -31780.798856508995    1052.314599342335 
  392000   -5478.603659572422   -5478.603659572422   25255.772424502233  -31779.672342511440    1045.296258436785 
  393000   -5563.296309779729   -5563.296309779729   25059.575250010610  -31780.978593321302    1158.107033530964 
  394000   -5537.146588022177   -5537.146588022177   25195.148098458620  -31781.404449111415    1049.109762630619 
  395000   -5524.917190574768   -5524.917190574768   25171.224323355484  -31780.221432597620    1084.079918667368 
  396000   -5491.124080953312   -5491.124080953312   25165.312800707150  -31778.084225620340    1121.647343959880 
  397000   -5532.932337186608   -5532.932337186608   25050.234460798150  -31780.409067214558    1197.242269229799 
  398000   -5507.558933718028   -5507.558933718028   25250.820582674882  -31777.571865605583    1019.192349212671 
  399000   -5513.554862083336   -5513.554862083336   25249.898674141270  -31776.940414955036    1013.486878730433 
  400000   -5540.739121657374   -5540.739121657374   25155.776260907762  -31784.870464349919    1088.355081784786 
  401000   -5504.357751320171   -5504.357751320171   25208.947291753884  -31778.856009248022    1065.550966173968 
  402000   -5501.992620640875   -5501.992620640875   25147.668952926368  -31781.654678990799    1131.993105423556 
  403000   -5530.829022614442   -5530.829022614442   25195.933462622739  -31779.214012360117    1052.451527122939 
  404000   -5482.989559277616   -5482.989559277616   25223.744085443930  -31776.302867202270    1069.569222480726 
  405000   -5485.256438568314   -5485.256438568314   25243.980302745978  -31780.638543852372    1051.401802538076 
  406000   -5532.109297458806   -5532.109297458806   25199.011422344112  -31780.557903746241    1049.437183943321 
  407000   -5556.471435365485   -5556.471435365485   25168.678445107791  -31777.700772910830    1052.550892437551 
  408000   -5518.656643647730   -5518.656643647730   25157.984605483311  -31780.730170970295    1104.088921839256 
  409000   -5481.463765401433   -5481.463765401433   25258.487469161864  -31782.726667323914    1042.775432760616 
  410000   -5521.851511411201   -5521.851511411201   25198.033399758860  -31780.248066940312    1060.363155770250 
  411000   -5527.060350723390   -5527.060350723390   25232.603425236470  -31780.564193812643    1020.900417852785 
  412000   -5526.043835011948   -5526.043835011948   25131.212291046064  -31778.361962781575    1121.105836723563 
  413000   -5558.107479278533   -5558.107479278533   25069.218383492484  -31781.498426864415    1154.172564093401 
  414000   -5554.895293661433   -5554.895293661433   25156.167627259973  -31781.509333667695    1070.446412746289 
  415000   -5522.697974039700   -5522.697974039700   25194.281601809613  -31782.245415328674    1065.265839479361 
  416000   -5534.112478370116   -5534.112478370116   25087.469486600490  -31777.417714058760    1155.835749088154 
  417000   -5501.379621556633   -5501.379621556633   25207.031211905622  -31778.766141036402    1070.355307574149 
  418000   -5481.697276523213   -5481.697276523213   25230.304945327145  -31777.802374781262    1065.800152930899 
  419000   -5518.253593896319   -5518.253593896319   25138.770740318108  -31780.419647934039    1123.395313719608 
  420000   -5567.585814704598   -5567.585814704598   25163.733706750430  -31778.859566550454    1047.540045095428 
  421000   -5558.509276468816   -5558.509276468816   25133.995768909423  -31777.958008708592    1085.452963330353 
  422000   -5513.113018080214   -5513.113018080214   25160.047029715075  -31772.339140920882    1099.179093125586 
  423000   -5503.083895816177   -5503.083895816177   25238.233604138171  -31778.397674688014    1037.080174733667 
  424000   -5465.655978806819   -5465.655978806819   25236.170109171107  -31774.086940091838    1072.260852113911 
  425000   -5509.102420701955   -5509.102420701955   25190.314274297303  -31777.849775822116    1078.433080822860 
  426000   -5530.115804788860   -5530.115804788860   25118.931638338512  -31781.584037749421    1132.536594622049 
  427000   -5504.623322222702   -5504.623322222702   25158.181424858802  -31778.757589733355    1115.952842651851 
  428000   -5528.520617687958   -5528.520617687958   25119.456691089661  -31780.408342863368    1132.431034085749 
  429000   -5504.231739555806   -5504.231739555806   25229.942869976876  -31781.729629214020    1047.555019681338 
  430000   -5593.163939606948   -5593.163939606948   25127.955947782819  -31783.499610000148    1062.379722610379 
  431000   -5530.768113886326   -5530.768113886326   25216.511025390915  -31780.606086802934    1033.326947525691 
  432000   -5473.610192976084   -5473.610192976084   25205.749984990889  -31775.132147227996    1095.771969261023 
  433000   -5494.573367112451   -5494.573367112451   25207.920787866347  -31778.989158268101    1076.495003289305 
  434000   -5566.156641429898   -5566.156641429898   25095.552794828360  -31780.837053362036    1119.127617103778 
  435000   -5502.941500140878   -5502.941500140878   25175.306079518181  -31778.909086783446    1100.661507124388 
  436000   -5549.801548002870   -5549.801548002870   25150.643576567491  -31779.408651449747    1078.963526879386 
  437000   -5552.803565101189   -5552.803565101189   25132.270469686107  -31775.828544561220    1090.754509773926 
  438000   -5547.168630933826   -5547.168630933826   25142.960458143847  -31780.213440482821    1090.084351405151 
  439000   -5572.483360347233   -5572.483360347233   25153.627152289613  -31783.291315171267    1057.180802534417 
  440000   -5508.616219369404   -5508.616219369404   25168.120897736972  -31778.977133855442    1102.240016749065 
  441000   -5506.248378814202   -5506.248378814202   25160.274704172080  -31779.320860641241    1112.797777654963 
  442000   -5477.061926020982   -5477.061926020982   25239.646091108367  -31781.500364061529    1064.792346932177 
  443000   -5527.994381158693   -5527.994381158693   25131.460886943998  -31778.849503340134    1119.394235237442 
  444000   -5507.897646868048   -5507.897646868048   25202.744358545533  -31776.423772574315    1065.781767160737 
  445000   -5529.293673978962   -5529.293673978962   25126.581516641087  -31783.386065992796    1127.510875372745 
  446000   -5566.339214295327   -5566.339214295327   25064.029431673600  -31779.343099556459    1148.974453587530 
  447000   -5535.167702892297   -5535.167702892297   25190.074984415143  -31778.554748884217    1053.312061576779 
  448000   -5567.133441159469   -5567.133441159469   25153.455069878313  -31782.478397888259    1061.889886850477 
  449000   -5503.792225076661   -5503.792225076661   25289.000447660892  -31777.667798235609     984.875125498059 
  450000   -5560.757657576592   -5560.757657576592   25095.901559962476  -31782.358274614933    1125.699057075858 
  451000   -5533.694655490210   -5533.694655490210   25189.703042194931  -31778.654036476291    1055.256338791150 
  452000   -5516.576708607023   -5516.576708607023   25159.283610231920  -31782.701093298321    1106.840774459384 
  453000   -5532.453056864149   -5532.453056864149   25165.183938752409  -31775.547087188588    1077.910091572032 
  454000   -5538.313427393747   -5538.313427393747   25145.768457816521  -31780.495009055474    1096.413123845203 
  455000   -5552.412710338416   -5552.412710338416   25094.684936559926  -31780.888126673788    1133.790479775443 
  456000   -5529.073398472461   -5529.073398472461   25185.504605879963  -31781.145264437928    1066.567260085502 
  457000   -5547.282654466100   -5547.282654466100   25136.329656210459  -31776.522808328824    1092.910497652270 
  458000   -5514.280419705152   -5514.280419705152   25179.433414960818  -31782.294892576087    1088.581057910121 
  459000   -5524.107986230931   -5524.107986230931   25165.348399127106  -31779.199717752392    1089.743332394355 
  460000   -5562.932109442401   -5562.932109442401   25188.588908526137  -31780.426128962859    1028.905110994322 
  461000   -5507.401536878489   -5507.401536878489   25184.579055514092  -31781.835640033718    1089.855047641135 
  462000   -5507.518150528565   -5507.518150528565   25196.700131147412  -31778.648931968673    1074.430650292694 
  463000   -5501.397533447755   -5501.397533447755   25227.664105740027  -31781.284616137840    1052.222976950057 
  464000   -5505.694443229433   -5505.694443229433   25222.037629271261  -31778.881335830843    1051.149263330152 
  465000   -5519.189793213201   -5519.189793213201   25267.443358705510  -31781.188054554328     994.554902635618 
  466000   -5541.092688432294   -5541.092688432294   25203.448306545295  -31777.240473853952    1032.699478876363 
  467000   -5496.959794241549   -5496.959794241549   25233.837033874424  -31782.072382085447    1051.275553969477 
  468000   -5457.161909405255   -5457.161909405255   25267.031098632466  -31781.372106364110    1057.179098326390 
  469000   -5524.470149584871   -5524.470149584871   25198.619463454626  -31781.114832838866    1058.025219799366 
  470000   -5557.259093417091   -5557.259093417091   25104.682835623062  -31780.124392638678    1118.182463598529 
  471000   -5539.505301197551   -5539.505301197551   25137.055256112872  -31779.898125623236    1103.337568312812 
  472000   -5532.189841364856   -5532.189841364856   25174.121152506999  -31782.475830019921    1076.164836148067 
  473000   -5508.926166772082   -5508.926166772082   25162.416781702934  -31776.536655773565    1105.193707298547 
  474000   -5564.680705570274   -5564.680705570274   25121.133691136500  -31781.445298725477    1095.630902018704 
  475000   -5520.330097087917   -5520.330097087917   25210.853448021440  -31783.156218928943    1051.972673819593 
  476000   -5551.552211122853   -5551.552211122853   25129.839233857434  -31774.365045031835    1092.973600051553 
  477000   -5476.940693033797   -5476.940693033797   25240.375056000976  -31776.519825804004    1059.204076769228 
  478000   -5533.520598734904   -5533.520598734904   25191.541703907034  -31780.938181800375    1055.875879158439 
  479000   -5548.477699867886   -5548.477699867886   25192.699147381565  -31782.266353681545    1041.089506432093 
  480000   -5523.692816409952   -5523.692816409952   25175.800663381906  -31775.164228355599    1075.670748563740 
  481000   -5464.762121530559   -5464.762121530559   25287.009927741703  -31779.796021728431    1028.023972456167 
  482000   -5518.902561477542   -5518.902561477542   25187.944675476847  -31780.085021004132    1073.237784049744 
  483000   -5505.273633915207   -5505.273633915207   25211.976840852225  -31781.349431207604    1064.098956440173 
  484000   -5543.783192463212   -5543.783192463212   25079.312342461682  -31779.161056774952    1156.065521850053 
  485000   -5533.597891804464   -5533.597891804464   25172.607187919501  -31778.091011534030    1071.885931810067 
  486000   -5491.831654349760   -5491.831654349760   25200.973846188346  -31778.987229686532    1086.181729148421 
  487000   -5591.281445184817   -5591.281445184817   25131.837444125733  -31780.814485480409    1057.695596169859 
  488000   -5599.215524853022   -5599.215524853022   25047.198618389295  -31775.747756815083    1129.333613572765 
  489000   -5534.002761674823   -5534.002761674823   25175.185622743713  -31778.018148353873    1068.829763935340 
  490000   -5495.552856790408   -5495.552856790408   25213.661722576770  -31780.075994520997    1070.861415153818 
  491000   -5516.971400211729   -5516.971400211729   25144.074591873832  -31779.528434281474    1118.482442195917 
  492000   -5510.786282221015   -5510.786282221015   25191.700062217333  -31776.891326977533    1074.404982539183 
  493000   -5492.228965814484   -5492.228965814484   25189.854002869164  -31777.215560411511    1095.132591727866 
  494000   -5504.175827409999   -5504.175827409999   25225.701890999044  -31780.594704585714    1050.716986176664 
  495000   -5492.386584590386   -5492.386584590386   25210.357107761785  -31779.607957524997    1076.864265172826 
  496000   -5520.521478722727   -5520.521478722727   25243.168157240580  -31780.223601301444    1016.533965338131 
  497000   -5569.658551428078   -5569.658551428078   25079.236775342586  -31780.899735730847    1132.004408960185 
  498000   -5531.575736909337   -5531.575736909337   25187.067904493306  -31781.315327909051    1062.671686506411 
  499000   -5552.399493184752   -5552.399493184752   25157.605094880466  -31781.710699308351    1071.706111243132 
  500000   -5491.356902849500   -5491.356902849500   25183.103149919098  -31777.908212436563    1103.448159667964 
  501000   -5581.168217200127   -5581.168217200127   25081.176818207558  -31780.473868475212    1118.128833067529 
  502000   -5507.087262135297   -5507.087262135297   25151.957787196901  -31778.977344062529    1119.932294730331 
  503000   -5622.850839452920   -5622.850839452920   24989.796905265954  -31782.547613168179    1169.899868449301 
  504000   -5503.892131459517   -5503.892131459517   25192.609492295302  -31777.219651250278    1080.718027495455 
  505000   -5514.391542945523   -5514.391542945523   25171.932181792799  -31779.823877934021    1093.500153195697 
  506000   -5497.255970149927   -5497.255970149927   25171.138719010873  -31778.478602344709    1110.083913183911 
  507000   -5493.111543801977   -5493.111543801977   25161.917327635900  -31779.326673218584    1124.297801780705 
  508000   -5549.910892777902   -5549.910892777902   25174.517251768273  -31777.835830168231    1053.407685622058 
  509000   -5556.093424140821   -5556.093424140821   25159.714262110443  -31784.337132742818    1068.529446491556 
  510000   -5496.755099331956   -5496.755099331956   25223.257798567985  -31783.149034541329    1063.136136641388 
  511000   -5525.798415288715   -5525.798415288715   25192.921189331577  -31780.971325720464    1062.251721100174 
  512000   -5532.663420342473   -5532.663420342473   25162.592884994650  -31779.302496411521    1084.046191074398 
  513000   -5467.653191314716   -5467.653191314716   25235.937441647795  -31778.486875295624    1074.896242333116 
  514000   -5495.393567220526   -5495.393567220526   25207.114898988802  -31779.530462417511    1077.021996208183 
  515000   -5522.321594257483   -5522.321594257483   25211.466023173482  -31777.880126616386    1044.092509185418 
  516000   -5544.740700323673   -5544.740700323673   25122.508136364064  -31778.093898956271    1110.845062268534 
  517000   -5536.095977545396   -5536.095977545396   25209.775126726381  -31773.958658488358    1028.087554216582 
  518000   -5591.942074696035   -5591.942074696035   25131.393407381423  -31780.756784280959    1057.421302203499 
  519000   -5551.771781666768   -5551.771781666768   25139.291007689186  -31782.063896354055    1091.001106998103 
  520000   -5544.982653026338   -5544.982653026338   25210.889334947140  -31781.991710839728    1026.119722866245 
  521000   -5518.026768122039   -5518.026768122039   25154.562787542094  -31781.762613267765    1109.173057603632 
  522000   -5502.663988441596   -5502.663988441596   25246.840469133327  -31779.175968499025    1029.671510924096 
  523000   -5522.551308492533   -5522.551308492533   25190.989649597454  -31778.604921540049    1065.063963450061 
  524000   -5503.763688710500   -5503.763688710500   25284.374954344559  -31781.388212533122     993.249569478062 
  525000   -5509.711493193543   -5509.711493193543   25212.196267071282  -31783.216183156132    1061.308422891308 
  526000   -5584.104072298691   -5584.104072298691   25054.292706577591  -31783.068069225203    1144.671290348917 
  527000   -5542.494751485032   -5542.494751485032   25049.122697114362  -31780.590288482224    1188.972839882829 
  528000   -5554.129706838441   -5554.129706838441   25126.819480330720  -31777.881910546566    1096.932723377408 
  529000   -5544.768388130349   -5544.768388130349   25124.218375234846  -31782.374012142711    1113.387248777510 
  530000   -5554.456803662495   -5554.456803662495   25175.379549062600  -31779.640250508099    1049.803897783004 
  531000   -5549.953517162656   -5549.953517162656   25126.408633203180  -31780.469922417084    1104.107772051247 
  532000   -5582.738958048212   -5582.738958048212   25063.573661323877  -31781.606753088901    1135.294133716812 
  533000   -5620.540626181999   -5620.540626181999   24993.031025989814  -31781.410618099224    1167.838965927409 
  534000   -5516.762287975478   -5516.762287975478   25199.248114596372  -31778.433290064626    1062.422887492774 
  535000   -5525.305668521574   -5525.305668521574   25202.174140937870  -31777.622860057400    1050.143050597957 
  536000   -5533.393580658514   -5533.393580658514   25165.750367246299  -31780.090123931128    1080.946176026316 
  537000   -5457.259171834208   -5457.259171834208   25203.920413324606  -31773.061413463598    1111.881828304784 
  538000   -5537.399292533617   -5537.399292533617   25174.781026725683  -31778.797198834156    1066.616879574855 
  539000   -5527.545088207600   -5527.545088207600   25193.582812727880  -31783.232307753202    1062.104406817721 
  540000   -5426.517605002791   -5426.517605002791   25324.587355333941  -31780.217862305581    1029.112901968843 
  541000   -5490.927463386684   -5490.927463386684   25185.087904067550  -31781.005247197412    1104.989879743179 
  542000   -5569.938175185714   -5569.938175185714   25097.206872433959  -31777.795860663879    1110.650813044207 
  543000   -5505.064748241806   -5505.064748241806   25139.275939053245  -31781.305665142660    1136.964977847611 
  544000   -5509.214319513536   -5509.214319513536   25189.412765560235  -31781.432481562784    1082.805396489012 
  545000   -5472.971534080029   -5472.971534080029   25198.578842729738  -31779.166214689536    1107.615837879770 
  546000   -5553.043970272167   -5553.043970272167   25159.960073586466  -31781.023670088638    1068.019626230006 
  547000   -5492.776450158981   -5492.776450158981   25131.810576106735  -31781.100788986689    1156.513762720974 
  548000   -5521.124758481506   -5521.124758481506   25212.026256233788  -31783.043932284567    1049.892917569275 
  549000   -5564.290384971187   -5564.290384971187   25079.187888517241  -31780.333085026148    1136.854811537728 
  550000   -5499.641081211837   -5499.641081211837   25217.674271487987  -31779.788721964145    1062.473369264320 
  551000   -5532.061480451157   -5532.061480451157   25110.217496075817  -31777.337289632214    1135.058313105238 
  552000   -5546.269853233109   -5546.269853233109   25096.932352781034  -31782.851788205753    1139.649582191606 
  553000   -5538.433939756254   -5538.433939756254   25056.863555882235  -31780.303953856212    1185.006458217719 
  554000   -5486.541420307436   -5486.541420307436   25237.703430808378  -31782.589185630986    1058.344334515171 
  555000   -5482.516921127972   -5482.516921127972   25169.795466020249  -31778.873252329140    1126.560865180918 
  556000   -5520.528718741312   -5520.528718741312   25063.096518220962  -31778.304274842929    1194.679037880653 
  557000   -5581.772921404761   -5581.772921404761   25123.748384879851  -31777.266233612088    1071.744927327473 
  558000   -5479.428406563115   -5479.428406563115   25197.965939104433  -31776.667309660996    1099.272963993447 
  559000   -5583.650913959671   -5583.650913959671   25055.317720285555  -31777.121324160184    1138.152689914957 
  560000   -5455.784370357127   -5455.784370357127   25274.900472577636  -31776.888954036865    1046.204111102103 
  561000   -5482.311313673574   -5482.311313673574   25181.152184419992  -31773.456693873442    1109.993195779871 
  562000   -5560.560562290470   -5560.560562290470   25071.414512057705  -31783.021502460688    1151.046428112520 
  563000   -5510.079768035601   -5510.079768035601   25155.784520804838  -31783.228461886745    1117.364173046300 
  564000   -5521.688369836258   -5521.688369836258   25166.434794182784  -31781.138718290174    1093.015554271131 
  565000   -5534.302875481895   -5534.302875481895   25137.059089835489  -31776.911239873982    1105.549274556600 
  566000   -5596.500243390772   -5596.500243390772   25084.842903036431  -31779.254181109085    1097.911034681882 
  567000   -5518.112107727902   -5518.112107727902   25122.598468458913  -31777.977640085297    1137.267063898486 
  568000   -5527.661251938989   -5527.661251938989   25201.067700731255  -31780.491115119221    1051.762162448979 
  569000   -5522.391616645007   -5522.391616645007   25179.975585038690  -31778.020732355908    1075.653530672213 
  570000   -5490.965583782196   -5490.965583782196   25135.085808106323  -31781.608100325408    1155.556708436891 
  571000   -5511.981178903712   -5511.981178903712   25134.308349673334  -31780.081619465411    1133.792090888363 
  572000   -5556.843393758325   -5556.843393758325   25148.930655151307  -31783.235720751924    1077.461671842291 
  573000   -5482.030457721597   -5482.030457721597   25205.501060120052  -31775.548971692206    1088.017453850560 
  574000   -5527.369291242689   -5527.369291242689   25193.433704539064  -31780.339507319968    1059.536511538216 
  575000   -5506.020808103105   -5506.020808103105   25189.819975521292  -31780.666863414910    1084.826079790515 
  576000   -5505.884781894893   -5505.884781894893   25105.573207890786  -31772.611827921115    1161.153838135442 
  577000   -5467.348836990208   -5467.348836990208   25248.322648500660  -31776.943121403576    1061.271635912706 
  578000   -5480.948887336988   -5480.948887336988   25188.001483151547  -31776.529781527741    1107.579411039207 
  579000   -5566.468490001433   -5566.468490001433   25105.738085333600  -31786.344600822824    1114.138025487788 
  580000   -5526.962693302205   -5526.962693302205   25098.096241961972  -31778.334051553200    1153.275116289024 
  581000   -5506.770126667536   -5506.770126667536   25213.514370592427  -31782.448512807336    1062.164015547369 
  582000   -5507.520213946344   -5507.520213946344   25189.307890977216  -31780.931221793064    1084.103116869502 
  583000   -5499.483250208501   -5499.483250208501   25218.822450411717  -31780.329148770699    1062.023448150482 
  584000   -5498.450496847290   -5498.450496847290   25189.148688193793  -31777.795844225009    1090.196659183927 
  585000   -5518.568531820445   -5518.568531820445   25164.925141091175  -31780.593835962824    1097.100163051209 
  586000   -5528.539831465750   -5528.539831465750   25161.987354655961  -31778.202735838338    1087.675549716629 
  587000   -5541.120096387178   -5541.120096387178   25137.210639469788  -31782.914605014739    1104.583869157772 
  588000   -5535.228992220364   -5535.228992220364   25120.075352321073  -31779.424897949557    1124.120553408118 
  589000   -5544.326925988629   -5544.326925988629   25203.748661404999  -31779.561481099576    1031.485893705944 
  590000   -5520.261133466691   -5520.261133466691   25233.282516515439  -31779.915737830393    1026.372087848260 
  591000   -5547.085030225528   -5547.085030225528   25091.956680992887  -31783.012262576689    1143.970551358270 
  592000   -5582.875080622565   -5582.875080622565   25059.375348684123  -31776.578907230047    1134.328477923357 
  593000   -5527.580941477343   -5527.580941477343   25141.462949246546  -31779.361981120903    1110.318090397011 
  594000   -5539.892735689074   -5539.892735689074   25098.806784813522  -31775.712881323223    1137.013360820625 
  595000   -5511.791867383519   -5511.791867383519   25181.041035408758  -31780.768855302082    1087.935952509811 
  596000   -5586.602297771056   -5586.602297771056   25032.423346450440  -31782.874536674251    1163.848892452758 
  597000   -5556.899224348155   -5556.899224348155   25080.121420871164  -31784.108434417336    1147.087789198023 
  598000   -5489.326605824222   -5489.326605824222   25209.216172745830  -31783.330292993742    1084.787514423687 
  599000   -5496.595300375608   -5496.595300375608   25143.565683384557  -31780.833472807546    1140.672489047387 
  600000   -5533.671113382719   -5533.671113382719   25165.678311811080  -31780.126750949294    1080.777325755496 
  601000   -5530.913941914463   -5530.913941914463   25162.205633062753  -31777.977350649100    1084.857775671886 
  602000   -5511.599637335577   -5511.599637335577   25189.604390095796  -31780.271623260975    1079.067595829597 
  603000   -5572.287004185262   -5572.287004185262   25080.336079563647  -31780.373600031937    1127.750516283023 
  604000   -5508.105435827933   -5508.105435827933   25149.571886364509  -31782.688860889710    1125.011538697262 
  605000   -5516.383077418064   -5516.383077418064   25199.850409510924  -31779.150488029252    1062.917001100267 
  606000   -5575.400621732293   -5575.400621732293   25150.327317938769  -31783.357504866693    1057.629565195631 
  607000   -5542.554206585381   -5542.554206585381   25107.023250634025  -31781.997335792315    1132.419878572904 
  608000   -5529.153197061933   -5529.153197061933   25156.110183814435  -31780.352771335536    1095.089390459169 
  609000   -5520.909724396606   -5520.909724396606   25205.767765355107  -31779.045587620280    1052.368097868565 
  610000   -5553.466287070874   -5553.466287070874   25106.020302605906  -31782.690877625129    1123.204287948352 
  611000   -5504.569001700846   -5504.569001700846   25127.258479606575  -31775.380709104145    1143.553227796727 
  612000   -5493.389498858509   -5493.389498858509   25215.756200490214  -31781.272329083953    1072.126629735227 
  613000   -5515.924123356748   -5515.924123356748   25179.624849195152  -31780.578404450793    1085.029431898892 
  614000   -5467.678900238756   -5467.678900238756   25227.015098836258  -31776.793661141888    1082.099662066871 
  615000   -5552.794351398712   -5552.794351398712   25103.201935095614  -31780.825541699727    1124.829255205399 
  616000   -5487.591352514526   -5487.591352514526   25242.251454723075  -31782.347737754051    1052.504930516450 
  617000   -5552.128209338814   -5552.128209338814   25123.994867171725  -31778.791036084040    1102.667959573500 
  618000   -5521.753537427674   -5521.753537427674   25154.574114611154  -31777.484212097646    1101.156560058820 
  619000   -5538.236513922893   -5538.236513922893   25152.119698965682  -31778.490574584976    1088.134361696399 
  620000   -5586.417024611186   -5586.417024611186   25056.442055830285  -31781.440830124066    1138.581749682595 
  621000   -5508.796987544243   -5508.796987544243   25159.294233450571  -31780.331860738239    1112.240639743423 
  622000   -5472.037460129461   -5472.037460129461   25205.404181411239  -31780.428304475055    1102.986662934355 
  623000   -5521.252294865528   -5521.252294865528   25222.619784559232  -31783.386723787040    1039.514644362283 
  624000   -5493.650175243409   -5493.650175243409   25278.543149996658  -31777.249903882181    1005.056578642115 
  625000   -5478.000087568333   -5478.000087568333   25262.520074706968  -31779.143315957117    1038.623153681815 
  626000   -5529.709630639394   -5529.709630639394   25150.662379320649  -31783.325751793982    1102.953741833936 
  627000   -5474.218277986409   -5474.218277986409   25218.470071487041  -31777.796407853952    1085.108058380504 
  628000   -5544.049666753053   -5544.049666753053   25159.481997862204  -31781.893165852605    1078.361501237350 
  629000   -5561.056762129996   -5561.056762129996   25081.277468727654  -31779.899521691907    1137.565290834252 
  630000   -5562.038085306507   -5562.038085306507   25114.936030567675  -31781.477513268936    1104.503397394755 
  631000   -5593.461411723092   -5593.461411723092   25028.762524634483  -31779.894059684513    1157.670123326940 
  632000   -5507.630704060914   -5507.630704060914   25174.672341615798  -31782.715446725702    1100.412401048995 
  633000   -5503.783975411312   -5503.783975411312   25120.270485962472  -31777.749346801702    1153.694885427916 
  634000   -5518.030075174280   -5518.030075174280   25163.054385822848  -31778.509301010359    1097.424840013230 
  635000   -5588.881190349999   -5588.881190349999   24984.089157555005  -31776.235053792880    1203.264705887879 
  636000   -5502.548765809992   -5502.548765809992   25174.627700798315  -31780.510887188932    1103.334420580622 
  637000   -5515.108560623215   -5515.108560623215   25259.613128660883  -31781.158199873720    1006.436510589621 
  638000   -5482.822738052982   -5482.822738052982   25191.001303263241  -31779.977491409398    1106.153450093168 
  639000   -5519.676470910152   -5519.676470910152   25203.959929978268  -31783.470170324381    1059.833769435961 
  640000   -5510.334306873061   -5510.334306873061   25236.348121601361  -31781.269512288367    1034.587083813944 
  641000   -5473.895692986534   -5473.895692986534   25210.794226996142  -31775.814544037767    1091.124624055097 
  642000   -5559.161740090534   -5559.161740090534   25047.127773707092  -31783.116586198492    1176.827072400866 
  643000   -5474.600672581473   -5474.600672581473   25237.484122998583  -31782.120969413096    1070.036173833039 
  644000   -5509.440359628599   -5509.440359628599   25197.115193567566  -31783.143860228738    1076.588307032569 
  645000   -5471.175245157228   -5471.175245157228   25190.931944379299  -31777.091800973179    1114.984611436657 
  646000   -5611.544110549257   -5611.544110549257   25028.363826346969  -31783.142751285042    1143.234814388821 
  647000   -5557.558630512482   -5557.558630512482   25163.572016712700  -31776.402857055327    1055.272209830141 
  648000   -5552.907635098021   -5552.907635098021   25030.127687938199  -31777.818472689865    1194.783149653651 
  649000   -5548.518328647278   -5548.518328647278   25118.516068692334  -31781.613020110723    1114.578622771111 
  650000   -5475.542992689752   -5475.542992689752   25218.055134679504  -31780.856162052678    1087.258034683421 
  651000   -5512.330805506677   -5512.330805506677   25108.298983877779  -31779.785728260471    1159.155938876022 
  652000   -5529.511069372344   -5529.511069372344   25146.817345924475  -31780.444711434891    1104.116296138069 
  653000   -5513.614342065375   -5513.614342065375   25128.368514605943  -31780.506722806389    1138.523866135064 
  654000   -5507.553698172906   -5507.553698172906   25206.743224080961  -31778.604657668242    1064.307735414379 
  655000   -5522.624779833597   -5522.624779833597   25166.376912061987  -31778.401911539808    1089.400219644222 
  656000   -5517.748345744734   -5517.748345744734   25206.224974254656  -31777.749425814833    1053.776105815443 
  657000   -5475.287053031116   -5475.287053031116   25187.606190055732  -31777.779609243884    1114.886366157033 
  658000   -5500.489564623938   -5500.489564623938   25135.108802777642  -31777.428786403299    1141.830419001720 
  659000   -5590.493190929628   -5590.493190929628   25108.714494688014  -31780.909583435565    1081.701897817920 
  660000   -5601.734674242594   -5601.734674242594   25104.227742309140  -31781.048402560162    1075.085986008431 
  661000   -5546.750266557847   -5546.750266557847   25090.054309596359  -31782.232406586834    1145.427830432624 
  662000   -5464.519543410694   -5464.519543410694   25196.764877233887  -31779.314552786665    1118.030132142080 
  663000   -5573.959481938447   -5573.959481938447   25068.221376415459  -31780.124667929747    1137.943809575838 
  664000   -5495.011669879099   -5495.011669879099   25202.255829908660  -31775.448277170759    1078.180777383006 
  665000   -5538.688905976924   -5538.688905976924   25195.346439155961  -31777.070308864735    1043.034963731854 
  666000   -5582.651847491237   -5582.651847491237   25086.663511797557  -31777.483902019070    1108.168542730279 
  667000   -5554.570846470557   -5554.570846470557   25104.631406799526  -31778.382855299806    1119.180602029719 
  668000   -5504.778476860738   -5504.778476860738   25232.263449595339  -31778.635656805920    1041.593730349846 
  669000   -5471.541320808541   -5471.541320808541   25226.713795517691  -31779.415411762686    1081.160295436460 
  670000   -5465.719214720499   -5465.719214720499   25280.308063155182  -31780.465417308187    1034.438139432506 
  671000   -5532.815858509079   -5532.815858509079   25212.093074680481  -31779.063298794008    1034.154365604445 
  672000   -5555.431233177238   -5555.431233177238   25112.971218273189  -31776.621877458252    1108.219426007823 
  673000   -5533.172459848163   -5533.172459848163   25108.509434497922  -31778.942454824457    1137.260560478372 
  674000   -5498.457602539529   -5498.457602539529   25188.362131863883  -31781.535231119386    1094.715496715979 
  675000   -5553.537860127224   -5553.537860127224   25188.103865831014  -31781.365699631926    1039.723973673689 
[...]
 4838000   -5447.403448056608   -5447.403448056608   25087.015529332723  -31597.207247861574    1062.788270472246 
 4839000   -5463.408904869604   -5463.408904869604   25077.959811318593  -31590.644441706274    1049.275725518075 
 4840000   -5551.321490451493   -5551.321490451493   24953.834600175855  -31596.709822661160    1091.553732033809 
 4841000   -5595.809931941742   -5595.809931941742   24846.798517661402  -31601.893865389797    1159.285415786651 
 4842000   -5557.045156866832   -5557.045156866832   24945.987010977500  -31598.960101447297    1095.927933602969 
 4843000   -5514.253667556834   -5514.253667556834   25049.849464094888  -31597.207392432283    1033.104260780561 
 4844000   -5537.519995339033   -5537.519995339033   24959.999834886370  -31599.004746003149    1101.484915777743 
 4845000   -5452.304019099425   -5452.304019099425   25059.715200009272  -31597.981491225892    1085.962272117194 
 4846000   -5537.583616637348   -5537.583616637348   24972.773607499785  -31597.043206679711    1086.685982542579 
 4847000   -5507.835028135749   -5507.835028135749   25010.241443539609  -31594.965549151224    1076.889077475867 
 4848000   -5497.563876449116   -5497.563876449116   25110.961064754338  -31601.832225106773     993.307283903322 
 4849000   -5617.003877225205   -5617.003877225205   24900.744768287143  -31601.009677519036    1083.261032006689 
 4850000   -5567.085607074550   -5567.085607074550   24922.476997810652  -31602.822801750764    1113.260196865563 
 4851000   -5512.572632839361   -5512.572632839361   24955.016837808387  -31599.353633709132    1131.764163061381 
 4852000   -5512.779707790065   -5512.779707790065   24966.820972346482  -31597.805127845451    1118.204447708901 
 4853000   -5533.855569355575   -5533.855569355575   24913.903334399154  -31601.026841559655    1153.267937804921 
 4854000   -5488.601359892491   -5488.601359892491   25047.762085176237  -31602.498035602563    1066.134590533834 
 4855000   -5571.537854988401   -5571.537854988401   24893.413350586943  -31599.384169232064    1134.432963656718 
 4856000   -5574.880938002210   -5574.880938002210   24909.143850810557  -31597.126818379638    1113.102029566872 
 4857000   -5564.610425418192   -5564.610425418192   24907.876677028413  -31599.767746284029    1127.280643837422 
 4858000   -5453.485753701880   -5453.485753701880   25146.559258158166  -31599.042477127779     998.997465267733 
 4859000   -5500.751030267154   -5500.751030267154   24979.862380296785  -31597.860331590393    1117.246921026457 
 4860000   -5519.884315480973   -5519.884315480973   24951.148725905183  -31600.357402777416    1129.324361391264 
 4861000   -5568.914908437073   -5568.914908437073   24861.845226720012  -31600.966409792938    1170.206274635857 
 4862000   -5505.345389343191   -5505.345389343191   24967.413840368972  -31596.761214905586    1124.001985193418 
 4863000   -5534.599023038496   -5534.599023038496   24982.180303296773  -31599.337173887707    1082.557847552436 
 4864000   -5547.096552747480   -5547.096552747480   24948.940907505108  -31594.957614792580    1098.920154539990 
 4865000   -5510.039962399704   -5510.039962399704   25041.542294869276  -31599.038324172070    1047.456066903090 
 4866000   -5532.125120706361   -5532.125120706361   24922.777849023500  -31597.944735458561    1143.041765728701 
 4867000   -5567.139739547183   -5567.139739547183   24868.937891397742  -31598.429043162720    1162.351412217796 
 4868000   -5524.134475197203   -5524.134475197203   25003.332321772694  -31600.887796192379    1073.420999222486 
 4869000   -5498.247279174499   -5498.247279174499   25019.738738655753  -31598.885586159788    1080.899568329535 
 4870000   -5557.449823877087   -5557.449823877087   24929.313873594765  -31596.908054774976    1110.144357303122 
 4871000   -5535.432080288756   -5535.432080288756   24954.438678220125  -31598.709507117925    1108.838748609043 
 4872000   -5518.818228646720   -5518.818228646720   25014.548613318228  -31597.613478275212    1064.246636310266 
 4873000   -5479.263709862291   -5479.263709862291   25049.808733090085  -31594.117233790628    1065.044790838252 
 4874000   -5580.688556439112   -5580.688556439112   24921.870364010938  -31596.142604720892    1093.583684270844 
 4875000   -5537.895535110496   -5537.895535110496   24894.678344669854  -31595.655064020044    1163.081184239689 
 4876000   -5531.510222258275   -5531.510222258275   24934.424369462959  -31598.765928634024    1132.831336912791 
 4877000   -5575.295804274498   -5575.295804274498   24900.675789777721  -31600.446672862472    1124.475078810257 
 4878000   -5539.146192970820   -5539.146192970820   24932.377339376490  -31600.402093762943    1128.878561415633 
 4879000   -5525.190497615818   -5525.190497615818   24941.408111398661  -31597.274388755577    1130.675779741097 
 4880000   -5571.877790458700   -5571.877790458700   24903.964515653879  -31599.834213244871    1123.991907132288 
 4881000   -5556.978855577177   -5556.978855577177   25003.109768991046  -31601.331514768161    1041.242890199939 
 4882000   -5516.953270579612   -5516.953270579612   25063.734120373134  -31597.252505792683    1016.565114839937 
 4883000   -5493.186493244553   -5493.186493244553   24909.262748074590  -31594.061483428923    1191.612242109775 
 4884000   -5527.036970260695   -5527.036970260695   24988.315866009907  -31596.338217308908    1080.985381038304 
 4885000   -5485.038804616055   -5485.038804616055   25051.995438319755  -31599.386302128249    1062.352059192441 
 4886000   -5540.903546746296   -5540.903546746296   24926.319647660319  -31599.325278078024    1132.102083671406 
 4887000   -5553.129169261829   -5553.129169261829   24984.129697600052  -31602.347150179932    1065.088283318051 
 4888000   -5488.315602092756   -5488.315602092756   25034.316384494057  -31601.092391300630    1078.460404713820 
 4889000   -5559.025819290378   -5559.025819290378   24988.663550094443  -31599.015661013909    1051.326291629089 
 4890000   -5520.691095553811   -5520.691095553811   25038.994588299938  -31598.350833675693    1038.665149821946 
 4891000   -5539.252675520867   -5539.252675520867   24914.283010907911  -31599.061795001056    1145.526108572284 
 4892000   -5474.804620787530   -5474.804620787530   25073.316363533031  -31597.465331949214    1049.344347628650 
 4893000   -5520.916147635497   -5520.916147635497   25016.820432751978  -31600.921313827250    1063.184733439775 
 4894000   -5495.392194639095   -5495.392194639095   24992.692287170412  -31595.877823114952    1107.793341305445 
 4895000   -5554.695028545419   -5554.695028545419   24923.205646449027  -31599.835516649433    1121.934841654988 
 4896000   -5570.236314578444   -5570.236314578444   24866.111785952191  -31596.556750209344    1160.208649678709 
 4897000   -5557.514744599917   -5557.514744599917   24957.031239383847  -31603.441693842862    1088.895709859100 
 4898000   -5491.264242695055   -5491.264242695055   25012.061679716942  -31601.266480265429    1097.940557853432 
 4899000   -5524.097873979721   -5524.097873979721   24964.775773917434  -31597.871655501538    1108.998007604387 
 4900000   -5521.166459576663   -5521.166459576663   24967.888987595939  -31597.339383850740    1108.283936678135 
 4901000   -5549.802299459530   -5549.802299459530   24959.824799658676  -31596.685600457466    1087.058501339256 
 4902000   -5545.759281653591   -5545.759281653591   24952.862727209416  -31596.868155334327    1098.246146471322 
 4903000   -5507.282074173792   -5507.282074173792   24991.931683266979  -31594.403245003454    1095.189487562687 
 4904000   -5482.417079109477   -5482.417079109477   25080.638677445182  -31597.704775693612    1034.649019138956 
 4905000   -5455.717996947064   -5455.717996947064   25072.207089288189  -31599.709820321692    1071.784734086441 
 4906000   -5542.804996163843   -5542.804996163843   24897.322624048633  -31601.051269296859    1160.923649084384 
 4907000   -5500.227368527918   -5500.227368527918   25051.846026258703  -31594.525073846802    1042.451679060182 
 4908000   -5596.408697073515   -5596.408697073515   24913.958720464856  -31599.289575507457    1088.922157969082 
 4909000   -5509.747214789768   -5509.747214789768   25029.607746460504  -31598.885125199762    1059.530163949491 
 4910000   -5545.163125902749   -5545.163125902749   25017.693554677251  -31599.294784059864    1036.438103479866 
 4911000   -5574.842639256851   -5574.842639256851   24918.062837774763  -31601.327192147139    1108.421715115520 
 4912000   -5547.477778210257   -5547.477778210257   24935.570900746206  -31599.490983241685    1116.442304285219 
 4913000   -5454.248215941418   -5454.248215941418   25151.154811948989  -31601.842658814821     996.439630924415 
 4914000   -5473.799935785060   -5473.799935785060   25083.313940920798  -31598.100565093024    1040.986688387170 
 4915000   -5471.768574054022   -5471.768574054022   25120.406726823006  -31599.048975046680    1006.873674169651 
 4916000   -5475.848099135095   -5475.848099135095   25108.246091595985  -31601.768900194125    1017.674709463048 
 4917000   -5565.930077548019   -5565.930077548019   24860.250319664046  -31601.944401874942    1175.764004662878 
 4918000   -5501.792935030251   -5501.792935030251   25081.472215901573  -31598.074560215653    1014.809409283829 
 4919000   -5487.338310617146   -5487.338310617146   25092.959136311030  -31598.850939469281    1018.553492541106 
 4920000   -5496.263283334109   -5496.263283334109   24973.455323067159  -31598.439492783051    1128.720886381783 
 4921000   -5574.521056128353   -5574.521056128353   24880.835536795425  -31597.395582852077    1142.038989928294 
 4922000   -5568.422532053810   -5568.422532053810   24951.979236154122  -31601.864286412238    1081.462518204303 
 4923000   -5520.612880313714   -5520.612880313714   25025.948024486803  -31598.042993597643    1051.482088797124 
 4924000   -5535.990935484020   -5535.990935484020   24977.335032167233  -31600.650713667823    1087.324746016569 
 4925000   -5538.139551624139   -5538.139551624139   24954.522955549979  -31597.905381062534    1105.242873888415 
 4926000   -5570.687248058985   -5570.687248058985   24964.082272906991  -31597.431564030328    1062.662043064354 
 4927000   -5526.211698507792   -5526.211698507792   25029.594507401620  -31598.266275788606    1042.460069879198 
 4928000   -5558.110912835135   -5558.110912835135   24944.405997511563  -31597.370324543943    1094.853414197244 
 4929000   -5529.259052547994   -5529.259052547994   24935.793020486282  -31599.993090006221    1134.941016971949 
 4930000   -5591.760058320197   -5591.760058320197   24931.738341920547  -31599.735842577942    1076.237442337203 
 4931000   -5518.655245013462   -5518.655245013462   25003.973907761476  -31602.414316738723    1079.785163963786 
 4932000   -5553.049818609685   -5553.049818609685   24910.115419146015  -31599.305610156309    1136.140372400606 
 4933000   -5520.120571307136   -5520.120571307136   24957.239943204586  -31598.995411854481    1121.634897342762 
 4934000   -5487.210649853412   -5487.210649853412   24956.754921636944  -31593.703429428526    1149.737857938173 
 4935000   -5577.732952260125   -5577.732952260125   24929.432304007096  -31603.494955774182    1096.329699506962 
 4936000   -5648.289741364413   -5648.289741364413   24811.139674502538  -31598.214970285608    1138.785554418660 
 4937000   -5560.390256456009   -5560.390256456009   24939.142333738670  -31596.549067822689    1097.016477628006 
 4938000   -5565.528651923851   -5565.528651923851   24919.527217059913  -31593.662877509651    1108.607008525884 
 4939000   -5560.432735843580   -5560.432735843580   24989.219768812865  -31598.393122575799    1048.740617919351 
 4940000   -5604.660842775986   -5604.660842775986   24897.800067829179  -31599.788904025834    1097.327993420672 
 4941000   -5568.989400977833   -5568.989400977833   24866.394067000561  -31595.727721761457    1160.344253783066 
 4942000   -5566.447095600186   -5566.447095600186   24862.913883364658  -31600.819823110534    1171.458844145691 
 4943000   -5556.990726718304   -5556.990726718304   25003.058263605526  -31601.965095947417    1041.916105623584 
 4944000   -5499.600914064398   -5499.600914064398   24949.339987031752  -31597.277569409365    1148.336668313215 
 4945000   -5493.087427011891   -5493.087427011891   24991.924066959877  -31595.447043251483    1110.435549279710 
 4946000   -5515.713602949567   -5515.713602949567   25042.199267570690  -31599.117627846837    1041.204757326579 
 4947000   -5514.686360522934   -5514.686360522934   24939.353743423893  -31595.463297376551    1141.423193429725 
 4948000   -5484.798719777747   -5484.798719777747   25030.351483367725  -31598.935357259288    1083.785154113821 
 4949000   -5517.025277596509   -5517.025277596509   24980.274653115132  -31603.097334368973    1105.797403657332 
 4950000   -5560.462832199464   -5560.462832199464   24960.762613727828  -31595.054756140034    1073.829310212742 
 4951000   -5530.187213948608   -5530.187213948608   24945.075004863902  -31599.998430818341    1124.736212005826 
 4952000   -5481.870614767467   -5481.870614767467   24981.105283496290  -31596.661278515399    1133.685380251643 
 4953000   -5569.405692561799   -5569.405692561799   24904.265520463523  -31604.373661126661    1130.702448101337 
 4954000   -5495.268705376067   -5495.268705376067   25021.031883151314  -31597.298486441101    1080.997897913719 
 4955000   -5574.010689074381   -5574.010689074381   24864.063134991571  -31598.230892089399    1160.157068023445 
 4956000   -5565.649533497181   -5565.649533497181   24868.352318289559  -31599.488582885282    1165.486731098537 
 4957000   -5607.758761408808   -5607.758761408808   24857.248419748197  -31600.018172677796    1135.010991520792 
 4958000   -5469.829491698725   -5469.829491698725   25001.887418750513  -31594.119198262084    1122.402287812848 
 4959000   -5608.612477365608   -5608.612477365608   24802.849366846669  -31600.285524145016    1188.823679932740 
 4960000   -5541.138898220586   -5541.138898220586   24895.568728198316  -31599.106449514555    1162.398823095650 
 4961000   -5534.095299782974   -5534.095299782974   24968.958506036623  -31598.943567058774    1095.889761239173 
 4962000   -5497.832047113563   -5497.832047113563   25085.443487963479  -31598.581265203164    1015.305730126124 
 4963000   -5555.932105786600   -5555.932105786600   24933.954914049740  -31600.839659355457    1110.952639519114 
 4964000   -5553.404110470332   -5553.404110470332   24981.651671740761  -31600.802292044613    1065.746509833522 
 4965000   -5500.185183795893   -5500.185183795893   24958.479526857082  -31600.460636975215    1141.795926322246 
 4966000   -5546.970114235468   -5546.970114235468   24967.872244825965  -31600.279916922649    1085.437557861217 
 4967000   -5555.978591007883   -5555.978591007883   24933.527652319935  -31595.440542885211    1105.934299557393 
 4968000   -5556.701287629308   -5556.701287629308   24944.652545267545  -31599.057564097860    1097.703731201009 
 4969000   -5545.917124891381   -5545.917124891381   24954.284969026230  -31601.505610490651    1101.303516573040 
 4970000   -5513.930157267234   -5513.930157267234   25018.443072043221  -31595.522009047814    1063.148779737358 
 4971000   -5473.541676248798   -5473.541676248798   24972.902594981260  -31594.460458777561    1148.016187547502 
 4972000   -5549.680137839081   -5549.680137839081   24955.537376638036  -31600.904091148030    1095.686576670918 
 4973000   -5519.963136391274   -5519.963136391274   24957.353677079060  -31602.965271737779    1125.648458267446 
 4974000   -5511.307000844194   -5511.307000844194   25024.894422477271  -31594.605677292304    1058.404253970845 
 4975000   -5509.289471804128   -5509.289471804128   24989.456695594999  -31600.359471711417    1101.613304312290 
 4976000   -5457.821344008928   -5457.821344008928   25064.558691177346  -31597.003535373355    1074.623500187080 
 4977000   -5541.689478069580   -5541.689478069580   24983.930655938035  -31603.653005878241    1078.032871870621 
 4978000   -5484.813541564170   -5484.813541564170   25029.092221537809  -31597.243195902633    1083.337432800651 
 4979000   -5562.725732462866   -5562.725732462866   24935.875090523048  -31600.518302238448    1101.917479252529 
 4980000   -5518.968302724115   -5518.968302724115   25016.870825108941  -31601.811254589466    1065.972126756404 
 4981000   -5445.375421240267   -5445.375421240267   25071.022349591749  -31600.672670649510    1084.274899817492 
 4982000   -5539.322618535858   -5539.322618535858   24927.495608090678  -31597.787494208584    1130.969267582054 
 4983000   -5552.246248644566   -5552.246248644566   24979.522145924839  -31600.614450674751    1068.846056105345 
 4984000   -5473.018767435915   -5473.018767435915   25074.722050469078  -31596.551455965997    1048.810638061005 
 4985000   -5556.465951092498   -5556.465951092498   25018.871575772639  -31597.933454654241    1022.595927789103 
 4986000   -5520.423678555602   -5520.423678555602   24918.603191373510  -31599.237425945346    1160.210556016232 
 4987000   -5541.070982219895   -5541.070982219895   24988.268323282937  -31602.372539013417    1073.033233510586 
 4988000   -5504.632017009779   -5504.632017009779   24987.640171496918  -31597.243907834822    1104.971719328128 
 4989000   -5484.663334423625   -5484.663334423625   25012.884708727877  -31595.889799374694    1098.341756223192 
 4990000   -5525.476586941997   -5525.476586941997   24993.761632340618  -31601.219648357208    1081.981429074594 
 4991000   -5473.234413884315   -5473.234413884315   25054.777262953521  -31597.179896248545    1069.168219410705 
 4992000   -5523.447421724930   -5523.447421724930   25028.994904469644  -31598.648396403583    1046.206070209010 
 4993000   -5516.394569008378   -5516.394569008378   24955.614900939749  -31601.809444313207    1129.799974365073 
 4994000   -5504.719809844373   -5504.719809844373   24987.429960125031  -31595.206043693517    1103.056273724108 
 4995000   -5539.489878315129   -5539.489878315129   24963.121927307369  -31599.304748988507    1096.692943366012 
 4996000   -5497.567051740007   -5497.567051740007   24991.704884261537  -31595.164215772333    1105.892279770793 
 4997000   -5578.621071285561   -5578.621071285561   24859.805717228828  -31596.403061990524    1157.976273476132 
 4998000   -5536.717184885230   -5536.717184885230   24995.390080321577  -31596.807880363122    1064.700615156314 
 4999000   -5589.852566565834   -5589.852566565834   24939.822567870593  -31602.898323668585    1073.223189232154 
 5000000   -5579.042380371433   -5579.042380371433   24958.865844414264  -31602.696345374894    1064.788120589201 
Loop time of 30.049 on 8 procs for 5001 steps with 1503 atoms

Performance: 14.379 ns/day, 1.669 hours/ns, 166.428 timesteps/s
98.8% CPU use with 8 MPI tasks x 1 OpenMP threads

MPI task timing breakdown:
Section |  min time  |  avg time  |  max time  |%varavg| %total
---------------------------------------------------------------
Pair    | 0          | 0          | 0          |   0.0 |  0.00
Bond    | 0          | 0          | 0          |   0.0 |  0.00
Kspace  | 0          | 0          | 0          |   0.0 |  0.00
Neigh   | 0          | 0          | 0          |   0.0 |  0.00
Comm    | 0          | 0          | 0          |   0.0 |  0.00
Output  | 0          | 0          | 0          |   0.0 |  0.00
Modify  | 0          | 0          | 0          |   0.0 |  0.00
Other   |            | 30.05      |            |       |100.00

Nlocal:    187.875 ave 200 max 178 min
Histogram: 1 1 1 2 0 1 0 0 1 1
Nghost:    4654.5 ave 4732 max 4591 min
Histogram: 1 1 2 0 1 0 1 0 1 1
Neighs:    68188.1 ave 73440 max 65079 min
Histogram: 2 0 3 1 0 0 0 0 1 1

Total # of neighbors = 545505
Ave neighs/atom = 362.944
Ave special neighs/atom = 2
Neighbor list builds = 0
Dangerous builds = 0
Total wall time: 0:01:30
