LAMMPS (3 Mar 2020)
  using 1 OpenMP thread(s) per MPI task
Reading data file ...
  orthogonal box = (0 0 0) to (24 24 24)
  2 by 2 by 2 MPI processor grid
  reading atoms ...
  1503 atoms
  scanning bonds ...
  2 = max bonds/atom
  scanning angles ...
  1 = max angles/atom
  reading bonds ...
  1002 bonds
  reading angles ...
  501 angles
Finding 1-2 1-3 1-4 neighbors ...
  special bond factors lj:   0          0          0         
  special bond factors coul: 0          0          0         
  2 = max # of 1-2 neighbors
  1 = max # of 1-3 neighbors
  1 = max # of 1-4 neighbors
  2 = max # of special neighbors
  special bonds CPU = 0.00105599 secs
  read_data CPU = 0.0100702 secs
Setting atom values ...
  1 settings made for charge
Setting atom values ...
  2 settings made for charge
WARNING: Using 'neigh_modify every 1 delay 0 check yes' setting during minimization (src/min.cpp:190)
PPPM initialization ...
  using 12-bit tables for long-range coulomb (src/kspace.cpp:332)
  G vector (1/distance) = 0.315108
  grid = 24 24 24
  stencil order = 5
  estimated absolute RMS force accuracy = 0.00171042
  estimated relative force accuracy = 5.15088e-06
  using double precision MKL FFT
  3d grid and FFT values/proc = 6859 1728
Neighbor list info ...
  update every 1 steps, delay 0 steps, check yes
  max neighbors/atom: 2000, page size: 100000
  master list distance cutoff = 12
  ghost atom cutoff = 12
  binsize = 6, bins = 4 4 4
  3 neighbor lists, perpetual/occasional/extra = 3 0 0
  (1) pair lj/cut/coul/long, perpetual, skip from (3)
      attributes: half, newton on
      pair build: skip
      stencil: none
      bin: none
  (2) pair lj/cut/coul/long/soft, perpetual, skip from (3)
      attributes: half, newton on
      pair build: skip
      stencil: none
      bin: none
  (3) neighbor class addition, perpetual
      attributes: half, newton on
      pair build: half/bin/newton
      stencil: half/bin/3d/newton
      bin: standard
Setting up cg style minimization ...
  Unit style    : real
  Current step  : 0
Per MPI rank memory allocation (min/avg/max) = 10.15 | 10.15 | 10.16 Mbytes
Step Temp E_pair E_mol TotEng Press 
       0            0   -233.36154   0.56510211   -232.79644    17936.496 
      71            0   -6853.0577     370.2571   -6482.8006   -3909.2088 
Loop time of 0.270483 on 8 procs for 71 steps with 1503 atoms

98.5% CPU use with 8 MPI tasks x 1 OpenMP threads

Minimization stats:
  Stopping criterion = energy tolerance
  Energy initial, next-to-last, final = 
        -232.796437579     -6477.72688369     -6482.80058488
  Force two-norm initial, final = 680.793 119.263
  Force max component initial, final = 40.0838 12.204
  Final line search alpha, max atom move = 0.00456302 0.0556869
  Iterations, force evaluations = 71 124

MPI task timing breakdown:
Section |  min time  |  avg time  |  max time  |%varavg| %total
---------------------------------------------------------------
Pair    | 0.18053    | 0.1856     | 0.19133    |   0.8 | 68.62
Bond    | 0.00065984 | 0.00067738 | 0.0007038  |   0.0 |  0.25
Kspace  | 0.058786   | 0.064471   | 0.069663   |   1.3 | 23.84
Neigh   | 0.0043789  | 0.0043959  | 0.004432   |   0.0 |  1.63
Comm    | 0.012261   | 0.012455   | 0.012702   |   0.1 |  4.60
Output  | 0          | 0          | 0          |   0.0 |  0.00
Modify  | 0          | 0          | 0          |   0.0 |  0.00
Other   |            | 0.002888   |            |       |  1.07

Nlocal:    187.875 ave 192 max 186 min
Histogram: 2 2 0 2 0 1 0 0 0 1
Nghost:    4884.75 ave 4904 max 4876 min
Histogram: 3 1 1 0 0 2 0 0 0 1
Neighs:    72770.9 ave 75574 max 70989 min
Histogram: 1 0 2 3 1 0 0 0 0 1

Total # of neighbors = 582167
Ave neighs/atom = 387.337
Ave special neighs/atom = 2
Neighbor list builds = 3
Dangerous builds = 0
Finding SHAKE clusters ...
  0 = # of size 2 clusters
  0 = # of size 3 clusters
  0 = # of size 4 clusters
  501 = # of frozen angles
  find clusters CPU = 0.000276476 secs
PPPM initialization ...
  using 12-bit tables for long-range coulomb (src/kspace.cpp:332)
  G vector (1/distance) = 0.315108
  grid = 24 24 24
  stencil order = 5
  estimated absolute RMS force accuracy = 0.00171042
  estimated relative force accuracy = 5.15088e-06
  using double precision MKL FFT
  3d grid and FFT values/proc = 6859 1728
Neighbor list info ...
  update every 1 steps, delay 10 steps, check yes
  max neighbors/atom: 2000, page size: 100000
  master list distance cutoff = 12
  ghost atom cutoff = 12
  binsize = 6, bins = 4 4 4
  3 neighbor lists, perpetual/occasional/extra = 3 0 0
  (1) pair lj/cut/coul/long, perpetual, skip from (3)
      attributes: half, newton on
      pair build: skip
      stencil: none
      bin: none
  (2) pair lj/cut/coul/long/soft, perpetual, skip from (3)
      attributes: half, newton on
      pair build: skip
      stencil: none
      bin: none
  (3) neighbor class addition, perpetual
      attributes: half, newton on
      pair build: half/bin/newton
      stencil: half/bin/3d/newton
      bin: standard
Setting up Verlet run ...
  Unit style    : real
  Current step  : 71
  Time step     : 1
Per MPI rank memory allocation (min/avg/max) = 9.904 | 9.905 | 9.906 Mbytes
Step Temp TotEng PotEng E_bond E_angle E_dihed E_coul E_long E_vdwl 
      71     300.000000   -5957.920425   -6853.057683       0.000000       0.000000       0.000000   23517.480778  -31787.611331    1417.072870 
   10000     304.819740   -4631.936183   -5541.454537       0.000000       0.000000       0.000000   25094.030773  -31774.916820    1139.431510 
   20000     298.330524   -4605.828678   -5495.984571       0.000000       0.000000       0.000000   25186.477818  -31776.392538    1093.930149 
   30000     297.071249   -4653.777748   -5540.176225       0.000000       0.000000       0.000000   25167.206737  -31779.892672    1072.509710 
   40000     303.342511   -4646.230362   -5551.340975       0.000000       0.000000       0.000000   25169.118929  -31782.631389    1062.171485 
   50000     298.025674   -4608.448391   -5497.694674       0.000000       0.000000       0.000000   25217.082957  -31779.228195    1064.450564 
   60000     296.059834   -4628.668908   -5512.049534       0.000000       0.000000       0.000000   25234.293726  -31778.965068    1032.621807 
   70000     289.806177   -4617.401673   -5482.122696       0.000000       0.000000       0.000000   25232.422733  -31779.290395    1064.744965 
   80000     306.755468   -4581.329833   -5496.623994       0.000000       0.000000       0.000000   25201.131025  -31780.322335    1082.567316 
   90000     304.449657   -4574.178383   -5482.592488       0.000000       0.000000       0.000000   25228.876608  -31778.748025    1067.278929 
  100000     306.134529   -4637.149870   -5550.591278       0.000000       0.000000       0.000000   25086.918516  -31781.038097    1143.528302 
  110000     301.836615   -4551.212104   -5451.829437       0.000000       0.000000       0.000000   25281.983520  -31776.692955    1042.879998 
  120000     300.643419   -4628.142853   -5525.199940       0.000000       0.000000       0.000000   25210.813116  -31779.896674    1043.883619 
  130000     294.695641   -4635.008331   -5514.318491       0.000000       0.000000       0.000000   25266.514458  -31779.062819     998.229870 
  140000     293.322086   -4679.933327   -5555.145086       0.000000       0.000000       0.000000   25128.201720  -31782.752182    1099.405375 
  150000     306.906178   -4614.557177   -5530.301026       0.000000       0.000000       0.000000   25130.117460  -31777.953818    1117.535331 
  160000     308.653674   -4606.007643   -5526.965656       0.000000       0.000000       0.000000   25143.033943  -31774.649134    1104.649535 
  170000     296.581024   -4626.355949   -5511.291698       0.000000       0.000000       0.000000   25227.266289  -31781.277942    1042.719956 
  180000     308.534421   -4580.807844   -5501.410029       0.000000       0.000000       0.000000   25132.434652  -31780.153896    1146.309215 
  190000     295.050030   -4626.061259   -5506.428840       0.000000       0.000000       0.000000   25185.929675  -31780.340845    1087.982330 
  200000     309.591146   -4606.765753   -5530.520985       0.000000       0.000000       0.000000   25132.825630  -31779.167663    1115.821049 
  210000     304.390866   -4639.214403   -5547.453086       0.000000       0.000000       0.000000   25129.924801  -31780.822208    1103.444322 
  220000     297.230191   -4632.533595   -5519.406323       0.000000       0.000000       0.000000   25160.973865  -31778.690471    1098.310284 
  230000     292.891132   -4637.098836   -5511.024719       0.000000       0.000000       0.000000   25119.622835  -31778.747184    1148.099630 
  240000     300.225394   -4661.103546   -5556.913334       0.000000       0.000000       0.000000   25063.039118  -31782.427646    1162.475193 
  250000     313.102258   -4602.947762   -5537.179417       0.000000       0.000000       0.000000   25130.263386  -31782.567039    1115.124235 
  260000     291.093114   -4633.963234   -5502.524208       0.000000       0.000000       0.000000   25225.362235  -31776.317926    1048.431483 
  270000     293.581691   -4668.917060   -5544.903426       0.000000       0.000000       0.000000   25094.159726  -31779.990587    1140.927435 
  280000     297.784196   -4654.151483   -5542.677246       0.000000       0.000000       0.000000   25132.551247  -31781.162672    1105.934179 
  290000     296.562509   -4630.170034   -5515.050537       0.000000       0.000000       0.000000   25083.223381  -31779.179475    1180.905557 
  300000     304.694069   -4562.327128   -5471.470505       0.000000       0.000000       0.000000   25195.370892  -31776.971718    1110.130322 
  310000     292.753022   -4712.414756   -5585.928548       0.000000       0.000000       0.000000   25109.881188  -31778.311142    1082.501406 
  320000     307.829467   -4599.785816   -5518.284567       0.000000       0.000000       0.000000   25202.965561  -31780.075456    1058.825328 
  330000     292.660206   -4628.343623   -5501.580469       0.000000       0.000000       0.000000   25219.889656  -31780.024130    1058.554004 
  340000     307.531067   -4633.881963   -5551.490349       0.000000       0.000000       0.000000   25133.006910  -31777.301024    1092.803765 
  350000     296.572252   -4600.380233   -5485.289808       0.000000       0.000000       0.000000   25238.753469  -31776.390973    1052.347696 
  360000     310.131217   -4582.435438   -5507.802130       0.000000       0.000000       0.000000   25196.383519  -31776.498951    1072.313302 
  370000     298.609670   -4619.027571   -5510.016376       0.000000       0.000000       0.000000   25203.088955  -31779.748720    1066.643390 
  380000     299.090481   -4686.938994   -5579.362438       0.000000       0.000000       0.000000   25089.651945  -31782.581833    1113.567450 
  390000     305.443821   -4615.426417   -5526.806897       0.000000       0.000000       0.000000   25154.230639  -31774.375600    1093.338064 
  400000     290.238573   -4639.187658   -5505.198860       0.000000       0.000000       0.000000   25224.876842  -31780.915797    1050.840096 
  410000     296.283505   -4631.106454   -5515.154467       0.000000       0.000000       0.000000   25253.189115  -31775.821021    1007.477439 
  420000     290.227334   -4646.628322   -5512.605987       0.000000       0.000000       0.000000   25165.363145  -31781.167149    1103.198018 
  430000     314.833644   -4591.964049   -5531.361799       0.000000       0.000000       0.000000   25112.451455  -31780.324181    1136.510927 
  440000     303.801207   -4617.578414   -5524.057679       0.000000       0.000000       0.000000   25183.115877  -31779.919155    1072.745599 
  450000     303.603817   -4664.411794   -5570.302087       0.000000       0.000000       0.000000   25133.961022  -31784.549036    1080.285927 
  460000     313.908031   -4675.245632   -5611.881545       0.000000       0.000000       0.000000   25036.798901  -31782.064551    1133.384105 
  470000     308.112805   -4659.098851   -5578.443023       0.000000       0.000000       0.000000   25104.974233  -31779.020486    1095.603231 
  480000     294.457368   -4688.857460   -5567.456662       0.000000       0.000000       0.000000   25094.863936  -31778.098871    1115.778273 
  490000     293.691954   -4712.547359   -5588.862728       0.000000       0.000000       0.000000   25124.652987  -31783.617596    1070.101881 
  500000     300.742256   -4593.831907   -5491.183900       0.000000       0.000000       0.000000   25255.059480  -31781.433917    1035.190536 
  510000     295.502142   -4656.218380   -5537.934971       0.000000       0.000000       0.000000   25126.210332  -31780.076763    1115.931460 
  520000     299.171514   -4640.077544   -5532.742773       0.000000       0.000000       0.000000   25156.670159  -31785.962267    1096.549335 
  530000     298.213415   -4605.243533   -5495.049995       0.000000       0.000000       0.000000   25227.020854  -31779.787379    1057.716530 
  540000     297.309630   -4661.721251   -5548.831006       0.000000       0.000000       0.000000   25139.385482  -31778.926946    1090.710458 
  550000     306.909250   -4580.004914   -5495.757929       0.000000       0.000000       0.000000   25131.094125  -31776.693284    1149.841231 
  560000     295.915254   -4642.967336   -5525.916566       0.000000       0.000000       0.000000   25179.756165  -31780.687266    1075.014535 
  570000     292.596879   -4656.332299   -5529.380192       0.000000       0.000000       0.000000   25146.880648  -31777.624517    1101.363678 
  580000     299.735299   -4580.587756   -5474.935202       0.000000       0.000000       0.000000   25180.779466  -31778.847015    1123.132347 
  590000     298.091873   -4571.438077   -5460.881883       0.000000       0.000000       0.000000   25283.587850  -31778.944256    1034.474523 
  600000     291.508193   -4711.344478   -5581.143960       0.000000       0.000000       0.000000   25113.654369  -31778.186056    1083.387728 
  610000     297.770553   -4632.937616   -5521.422669       0.000000       0.000000       0.000000   25158.389988  -31775.856109    1096.043452 
  620000     314.071816   -4624.715282   -5561.839898       0.000000       0.000000       0.000000   25131.902816  -31775.268934    1081.526220 
  630000     306.816621   -4582.267317   -5497.743947       0.000000       0.000000       0.000000   25175.133640  -31780.784934    1107.907347 
  640000     303.483572   -4557.981788   -5463.513297       0.000000       0.000000       0.000000   25207.345835  -31779.396343    1108.537210 
  650000     294.925531   -4656.507800   -5536.503903       0.000000       0.000000       0.000000   25110.189595  -31775.480616    1128.787117 
  660000     294.571504   -4720.896563   -5599.836326       0.000000       0.000000       0.000000   25042.484084  -31781.368191    1139.047781 
  670000     291.674981   -4624.203997   -5494.501139       0.000000       0.000000       0.000000   25240.195807  -31779.940586    1045.243640 
  680000     301.025754   -4650.564552   -5548.762444       0.000000       0.000000       0.000000   25098.656722  -31776.652119    1129.232953 
  690000     311.268578   -4601.636045   -5530.396383       0.000000       0.000000       0.000000   25171.435802  -31778.649553    1076.817369 
  700000     306.937495   -4611.431120   -5527.268412       0.000000       0.000000       0.000000   25129.394464  -31778.148900    1121.486025 
  710000     289.022856   -4682.194195   -5544.577951       0.000000       0.000000       0.000000   25186.121147  -31777.977837    1047.278739 
  720000     295.293666   -4644.363684   -5525.458227       0.000000       0.000000       0.000000   25145.033841  -31782.181607    1111.689540 
  730000     291.948288   -4674.799078   -5545.911711       0.000000       0.000000       0.000000   25130.084885  -31780.103510    1104.106915 
  740000     297.938870   -4685.323178   -5574.310455       0.000000       0.000000       0.000000   25095.114756  -31781.206271    1111.781060 
  750000     302.226521   -4544.277373   -5446.058104       0.000000       0.000000       0.000000   25221.736432  -31775.302815    1107.508279 
  760000     302.733183   -4646.029004   -5549.321508       0.000000       0.000000       0.000000   25169.094647  -31782.962895    1064.546740 
  770000     311.210716   -4602.333319   -5530.921008       0.000000       0.000000       0.000000   25145.592776  -31779.375043    1102.861258 
  780000     306.226533   -4661.577139   -5575.293069       0.000000       0.000000       0.000000   25086.896674  -31776.551948    1114.362205 
  790000     314.588348   -4599.769618   -5538.435457       0.000000       0.000000       0.000000   25130.671519  -31778.638532    1109.531556 
  800000     288.875644   -4693.223746   -5555.168251       0.000000       0.000000       0.000000   25114.382188  -31778.430765    1108.880325 
  810000     290.702254   -4699.651507   -5567.046236       0.000000       0.000000       0.000000   25082.006603  -31780.716311    1131.663472 
  820000     285.771060   -4698.432910   -5551.113988       0.000000       0.000000       0.000000   25062.891118  -31781.474181    1167.469076 
  830000     296.469786   -4686.879254   -5571.483091       0.000000       0.000000       0.000000   25080.476711  -31779.021024    1127.061223 
  840000     306.244712   -4529.942452   -5443.712626       0.000000       0.000000       0.000000   25340.341971  -31776.295025     992.240428 
  850000     301.867098   -4662.335036   -5563.043323       0.000000       0.000000       0.000000   25088.113655  -31785.743903    1134.586925 
  860000     296.795644   -4621.477258   -5507.053387       0.000000       0.000000       0.000000   25266.260873  -31778.061874    1004.747615 
  870000     302.807457   -4579.179449   -5482.693572       0.000000       0.000000       0.000000   25238.780800  -31773.533270    1052.058898 
  880000     306.002631   -4577.617425   -5490.665278       0.000000       0.000000       0.000000   25206.872917  -31779.673699    1082.135504 
  890000     292.778769   -4680.396653   -5553.987268       0.000000       0.000000       0.000000   25120.473709  -31781.324236    1106.863259 
  900000     308.038085   -4638.594602   -5557.715824       0.000000       0.000000       0.000000   25136.692720  -31775.068012    1080.659468 
  910000     293.201944   -4668.213678   -5543.066959       0.000000       0.000000       0.000000   25126.060044  -31779.223898    1110.096895 
  920000     305.173360   -4658.214610   -5568.788093       0.000000       0.000000       0.000000   25107.281551  -31781.532797    1105.463154 
  930000     284.344613   -4715.451748   -5563.876607       0.000000       0.000000       0.000000   25119.572507  -31780.866685    1097.417572 
  940000     300.848404   -4606.706238   -5504.374955       0.000000       0.000000       0.000000   25129.397304  -31778.980770    1145.208511 
  950000     292.625974   -4669.420487   -5542.555192       0.000000       0.000000       0.000000   25239.603693  -31782.538944    1000.380059 
  960000     303.030483   -4631.586997   -5535.766583       0.000000       0.000000       0.000000   25120.299709  -31779.616103    1123.549811 
  970000     300.795053   -4623.242587   -5520.752116       0.000000       0.000000       0.000000   25176.221643  -31782.699820    1085.726060 
  980000     310.227184   -4617.874267   -5543.527304       0.000000       0.000000       0.000000   25131.755913  -31780.283447    1105.000230 
  990000     288.742839   -4648.755023   -5510.303267       0.000000       0.000000       0.000000   25267.100085  -31779.698742    1002.295390 
 1000000     299.159570   -4632.851277   -5525.480868       0.000000       0.000000       0.000000   25202.377890  -31779.790372    1051.931614 
 1000071     288.469450   -4647.988739   -5508.721247       0.000000       0.000000       0.000000   25213.170597  -31776.187375    1054.295531 
Loop time of 1962.45 on 8 procs for 1000000 steps with 1503 atoms

Performance: 44.027 ns/day, 0.545 hours/ns, 509.568 timesteps/s
99.2% CPU use with 8 MPI tasks x 1 OpenMP threads

MPI task timing breakdown:
Section |  min time  |  avg time  |  max time  |%varavg| %total
---------------------------------------------------------------
Pair    | 981.4      | 984.53     | 987.43     |   5.2 | 50.17
Bond    | 0.26716    | 0.29614    | 0.37779    |   6.4 |  0.02
Kspace  | 522.56     | 526.18     | 529.08     |   8.3 | 26.81
Neigh   | 70.299     | 70.348     | 70.401     |   0.4 |  3.58
Comm    | 90.198     | 92.426     | 93.713     |  11.3 |  4.71
Output  | 0.0042494  | 0.0048242  | 0.0087229  |   2.1 |  0.00
Modify  | 277.28     | 279.58     | 286.18     |  17.2 | 14.25
Other   |            | 9.088      |            |       |  0.46

Nlocal:    187.875 ave 195 max 173 min
Histogram: 1 0 1 0 0 0 1 0 2 3
Nghost:    4579.12 ave 4650 max 4518 min
Histogram: 2 1 0 0 1 0 2 0 1 1
Neighs:    67013.8 ave 71159 max 60484 min
Histogram: 1 1 0 0 0 0 2 1 1 2

Total # of neighbors = 536110
Ave neighs/atom = 356.693
Ave special neighs/atom = 2
Neighbor list builds = 43303
Dangerous builds = 0
PPPM initialization ...
  using 12-bit tables for long-range coulomb (src/kspace.cpp:332)
  G vector (1/distance) = 0.312908
  grid = 24 24 24
  stencil order = 5
  estimated absolute RMS force accuracy = 0.00187503
  estimated relative force accuracy = 5.6466e-06
  using double precision MKL FFT
  3d grid and FFT values/proc = 6859 1728
Neighbor list info ...
  update every 1 steps, delay 10 steps, check yes
  max neighbors/atom: 2000, page size: 100000
  master list distance cutoff = 12
  ghost atom cutoff = 12
  binsize = 6, bins = 5 5 5
  3 neighbor lists, perpetual/occasional/extra = 3 0 0
  (1) pair lj/cut/coul/long, perpetual, skip from (3)
      attributes: half, newton on
      pair build: skip
      stencil: none
      bin: none
  (2) pair lj/cut/coul/long/soft, perpetual, skip from (3)
      attributes: half, newton on
      pair build: skip
      stencil: none
      bin: none
  (3) neighbor class addition, perpetual
      attributes: half, newton on
      pair build: half/bin/newton
      stencil: half/bin/3d/newton
      bin: standard
Setting up Verlet run ...
  Unit style    : real
  Current step  : 0
  Time step     : 1
Per MPI rank memory allocation (min/avg/max) = 10.91 | 10.91 | 10.91 Mbytes
Step Temp TotEng PotEng E_bond E_angle E_dihed E_coul E_long E_vdwl 
       0     288.469450   -4647.987171   -5508.719679       0.000000       0.000000       0.000000   24991.855886  -31554.871096    1054.295531 
   10000     307.616853   -4630.215736   -5548.080091       0.000000       0.000000       0.000000   24946.689350  -31559.171812    1064.402371 
   20000     310.496893   -4572.131148   -5498.588939       0.000000       0.000000       0.000000   25004.281471  -31559.296179    1056.425769 
   30000     311.787484   -4562.810920   -5493.119566       0.000000       0.000000       0.000000   25056.564034  -31558.536418    1008.852817 
   40000     303.901508   -4671.487510   -5578.266051       0.000000       0.000000       0.000000   24850.704747  -31561.379531    1132.408734 
   50000     295.068662   -4667.332949   -5547.756125       0.000000       0.000000       0.000000   24950.318889  -31557.493859    1059.418845 
   60000     286.792776   -4666.900403   -5522.630067       0.000000       0.000000       0.000000   24956.171436  -31560.055780    1081.254276 
   70000     310.121556   -4602.279294   -5527.617157       0.000000       0.000000       0.000000   24930.666201  -31560.487190    1102.203832 
   80000     305.694442   -4662.121106   -5574.249388       0.000000       0.000000       0.000000   24829.630412  -31560.905924    1157.026123 
   90000     308.178845   -4637.019451   -5556.560673       0.000000       0.000000       0.000000   24859.873363  -31559.503937    1143.069901 
  100000     299.251218   -4620.553135   -5513.456184       0.000000       0.000000       0.000000   24920.269389  -31559.582343    1125.856770 
  110000     298.900293   -4665.604806   -5557.460769       0.000000       0.000000       0.000000   24914.846995  -31560.233522    1087.925758 
  120000     300.965629   -4682.690492   -5580.708985       0.000000       0.000000       0.000000   24861.518955  -31556.583060    1114.355121 
  130000     306.624576   -4681.182798   -5596.086404       0.000000       0.000000       0.000000   24840.155652  -31556.674334    1120.432277 
  140000     305.005560   -4633.314796   -5543.387598       0.000000       0.000000       0.000000   24899.504804  -31561.916416    1119.024015 
  150000     293.776177   -4651.677025   -5528.243696       0.000000       0.000000       0.000000   24938.906496  -31557.072325    1089.922133 
  160000     299.556607   -4679.478593   -5573.292858       0.000000       0.000000       0.000000   24873.222237  -31558.580898    1112.065803 
  170000     294.660634   -4667.572224   -5546.777930       0.000000       0.000000       0.000000   24916.873449  -31557.932332    1094.280953 
  180000     304.967037   -4599.610222   -5509.568080       0.000000       0.000000       0.000000   24972.272272  -31555.315761    1073.475409 
  190000     306.281705   -4599.555243   -5513.435794       0.000000       0.000000       0.000000   25000.166237  -31561.155204    1047.553173 
  200000     306.072980   -4636.974234   -5550.231995       0.000000       0.000000       0.000000   24882.411164  -31557.460903    1124.817744 
  210000     301.176051   -4677.609415   -5576.255763       0.000000       0.000000       0.000000   24880.979040  -31560.940435    1103.705633 
  220000     303.044455   -4613.475193   -5517.696469       0.000000       0.000000       0.000000   24996.951243  -31559.742881    1045.095169 
  230000     307.227870   -4644.934325   -5561.638036       0.000000       0.000000       0.000000   24915.499172  -31560.509262    1083.372054 
  240000     308.915239   -4588.886782   -5510.625250       0.000000       0.000000       0.000000   24924.182447  -31557.029904    1122.222208 
  250000     284.603378   -4728.804398   -5578.001355       0.000000       0.000000       0.000000   24840.795586  -31558.108724    1139.311783 
  260000     286.601637   -4696.265285   -5551.424629       0.000000       0.000000       0.000000   24905.941539  -31558.941044    1101.574875 
  270000     305.462457   -4581.387657   -5492.823745       0.000000       0.000000       0.000000   24876.717408  -31554.528126    1184.986973 
  280000     294.905339   -4669.307721   -5549.243576       0.000000       0.000000       0.000000   24913.646612  -31561.153010    1098.262823 
  290000     295.093487   -4687.078002   -5567.575250       0.000000       0.000000       0.000000   24830.955656  -31555.788980    1157.258074 
  300000     285.954468   -4730.508836   -5583.737163       0.000000       0.000000       0.000000   24939.033205  -31561.209513    1038.439145 
  310000     291.521683   -4619.296728   -5489.136461       0.000000       0.000000       0.000000   25011.583158  -31555.291711    1054.572092 
  320000     295.191857   -4622.923737   -5503.714503       0.000000       0.000000       0.000000   25013.858533  -31559.986002    1042.412965 
  330000     299.098328   -4650.569859   -5543.016717       0.000000       0.000000       0.000000   24945.765607  -31555.164874    1066.382549 
  340000     285.861096   -4665.951974   -5518.901698       0.000000       0.000000       0.000000   24950.820124  -31559.066591    1089.344770 
  350000     292.302099   -4691.571587   -5563.739918       0.000000       0.000000       0.000000   24836.479717  -31558.619175    1158.399540 
  360000     310.541088   -4581.969830   -5508.559490       0.000000       0.000000       0.000000   24904.924711  -31557.961152    1144.476951 
  370000     296.960153   -4639.225600   -5525.292591       0.000000       0.000000       0.000000   24927.575334  -31558.174038    1105.306113 
  380000     300.762762   -4628.896371   -5526.309551       0.000000       0.000000       0.000000   24961.728093  -31558.055729    1070.018085 
  390000     293.863995   -4657.822458   -5534.651161       0.000000       0.000000       0.000000   24904.241821  -31556.339868    1117.446886 
  400000     297.466818   -4653.146664   -5540.725439       0.000000       0.000000       0.000000   24934.404082  -31563.481070    1088.351550 
  410000     308.828972   -4600.345352   -5521.826418       0.000000       0.000000       0.000000   24976.688477  -31558.879527    1060.364633 
  420000     312.625113   -4634.776965   -5567.584920       0.000000       0.000000       0.000000   24942.364201  -31557.486907    1047.537786 
  430000     309.772010   -4668.848446   -5593.143338       0.000000       0.000000       0.000000   24906.539094  -31562.058991    1062.376558 
  440000     290.874877   -4640.667944   -5508.577744       0.000000       0.000000       0.000000   24946.807696  -31557.634660    1102.249220 
  450000     296.655896   -4675.610261   -5560.769412       0.000000       0.000000       0.000000   24874.502218  -31560.977418    1125.705788 
  460000     296.388389   -4678.550003   -5562.910968       0.000000       0.000000       0.000000   24967.260185  -31559.072679    1028.901526 
  470000     307.695268   -4639.152911   -5557.251240       0.000000       0.000000       0.000000   24883.321821  -31558.760264    1118.187203 
  480000     301.683101   -4623.510591   -5523.669869       0.000000       0.000000       0.000000   24954.549576  -31553.882709    1075.663264 
  490000     274.575925   -4676.289815   -5495.566951       0.000000       0.000000       0.000000   24992.292579  -31558.727560    1070.868030 
  500000     288.586987   -4630.248831   -5491.332045       0.000000       0.000000       0.000000   24961.771776  -31556.553100    1103.449278 
  510000     304.948015   -4586.863603   -5496.764704       0.000000       0.000000       0.000000   25001.859855  -31561.770857    1063.146298 
  520000     300.435376   -4648.552314   -5544.988644       0.000000       0.000000       0.000000   24989.497816  -31560.613494    1026.127034 
  530000     305.290074   -4643.548352   -5554.470085       0.000000       0.000000       0.000000   24954.015965  -31558.302218    1049.816168 
  540000     293.024517   -4552.193338   -5426.517213       0.000000       0.000000       0.000000   25103.233092  -31558.855764    1029.105460 
  550000     289.361829   -4636.238380   -5499.633561       0.000000       0.000000       0.000000   24996.314596  -31558.423617    1062.475460 
  560000     310.826500   -4528.357133   -5455.798402       0.000000       0.000000       0.000000   25053.604823  -31555.609555    1046.206331 
  570000     299.925207   -4596.034076   -5490.948167       0.000000       0.000000       0.000000   24913.767558  -31560.274612    1155.558886 
  580000     303.397331   -4621.689552   -5526.963737       0.000000       0.000000       0.000000   24876.771060  -31557.006637    1153.271840 
  590000     303.823439   -4613.740273   -5520.285874       0.000000       0.000000       0.000000   25011.924708  -31558.589351    1026.378769 
  600000     296.842100   -4647.975867   -5533.690613       0.000000       0.000000       0.000000   24944.337410  -31558.787205    1080.759182 
  610000     293.220868   -4678.557299   -5553.467045       0.000000       0.000000       0.000000   24884.609054  -31561.278746    1123.202647 
  620000     291.051220   -4717.993384   -5586.429354       0.000000       0.000000       0.000000   24835.043986  -31560.040938    1138.567597 
  630000     309.611664   -4638.246204   -5562.062657       0.000000       0.000000       0.000000   24893.537995  -31560.115650    1104.514998 
  640000     300.338730   -4614.155962   -5510.303920       0.000000       0.000000       0.000000   25014.984802  -31559.880526    1034.591803 
  650000     279.292903   -4642.190231   -5475.541843       0.000000       0.000000       0.000000   24996.684196  -31559.472970    1087.246931 
  660000     312.336110   -4669.766966   -5601.712597       0.000000       0.000000       0.000000   24882.839519  -31559.645532    1075.093415 
  670000     299.796245   -4571.194628   -5465.723924       0.000000       0.000000       0.000000   25058.987217  -31559.144098    1034.432957 
  680000     296.213145   -4567.658339   -5451.496412       0.000000       0.000000       0.000000   25110.305937  -31558.048363     996.246014 
  690000     297.868920   -4615.496497   -5504.275058       0.000000       0.000000       0.000000   24932.567498  -31557.276265    1120.433708 
  700000     291.910471   -4706.878903   -5577.878698       0.000000       0.000000       0.000000   24803.025677  -31557.621169    1176.716794 
  710000     294.436951   -4628.812366   -5507.350650       0.000000       0.000000       0.000000   24918.287966  -31556.370530    1130.731914 
  720000     298.605674   -4607.098572   -5498.075451       0.000000       0.000000       0.000000   24982.393874  -31556.437281    1075.967956 
  730000     307.142169   -4580.999769   -5497.447765       0.000000       0.000000       0.000000   25017.446952  -31563.449153    1048.554436 
  740000     297.150679   -4644.963846   -5531.599327       0.000000       0.000000       0.000000   24938.009755  -31557.537359    1087.928276 
  750000     297.145458   -4665.785116   -5552.405019       0.000000       0.000000       0.000000   24944.603702  -31558.549799    1061.541078 
  760000     312.612827   -4610.944123   -5543.715418       0.000000       0.000000       0.000000   24972.869371  -31560.174197    1043.589408 
  770000     288.532287   -4643.082610   -5504.002612       0.000000       0.000000       0.000000   24948.827505  -31558.591851    1105.761734 
  780000     290.552944   -4707.391138   -5574.340356       0.000000       0.000000       0.000000   24907.148986  -31561.389909    1079.900567 
  790000     296.000457   -4701.707306   -5584.910764       0.000000       0.000000       0.000000   24853.324152  -31557.131796    1118.896879 
  800000     305.085514   -4641.957219   -5552.268586       0.000000       0.000000       0.000000   24892.016747  -31555.520831    1111.235497 
  810000     302.443170   -4552.463647   -5454.890813       0.000000       0.000000       0.000000   24998.396242  -31557.252940    1103.965886 
  820000     296.863266   -4693.195340   -5578.973238       0.000000       0.000000       0.000000   24880.137458  -31561.269170    1102.158473 
  830000     310.360390   -4637.878145   -5563.928638       0.000000       0.000000       0.000000   24882.770774  -31561.138051    1114.438639 
  840000     295.196132   -4732.783431   -5613.586952       0.000000       0.000000       0.000000   24842.667844  -31557.401320    1101.146525 
  850000     297.560856   -4574.837918   -5462.697280       0.000000       0.000000       0.000000   24985.480283  -31556.861659    1108.684096 
  860000     292.311513   -4667.334339   -5539.530759       0.000000       0.000000       0.000000   24920.091700  -31554.974733    1095.352274 
  870000     312.845224   -4634.453692   -5567.918411       0.000000       0.000000       0.000000   24892.626990  -31558.413224    1097.867823 
  880000     304.333706   -4680.439396   -5588.507526       0.000000       0.000000       0.000000   24850.402864  -31560.556384    1121.645994 
  890000     290.150989   -4657.945612   -5523.695480       0.000000       0.000000       0.000000   24962.458446  -31556.612166    1070.458240 
  900000     307.297373   -4566.893886   -5483.804979       0.000000       0.000000       0.000000   25060.984481  -31557.653095    1012.863635 
  910000     302.774661   -4583.524754   -5486.941020       0.000000       0.000000       0.000000   25044.955049  -31557.474982    1025.578913 
  920000     305.697112   -4600.894546   -5513.030795       0.000000       0.000000       0.000000   25049.258269  -31557.892751     995.603688 
  930000     287.811119   -4656.488288   -5515.256476       0.000000       0.000000       0.000000   24954.872834  -31554.002645    1083.873335 
  940000     302.471955   -4585.917909   -5488.430964       0.000000       0.000000       0.000000   24913.108848  -31558.666941    1157.127130 
  950000     299.234348   -4652.435469   -5545.288181       0.000000       0.000000       0.000000   24915.447022  -31553.832834    1093.097630 
  960000     299.657763   -4677.339939   -5571.456035       0.000000       0.000000       0.000000   24901.546939  -31555.660426    1082.657453 
  970000     296.619791   -4632.540246   -5517.591666       0.000000       0.000000       0.000000   24950.820145  -31550.827182    1082.415371 
  980000     306.429915   -4636.077201   -5550.399980       0.000000       0.000000       0.000000   24878.585532  -31556.938114    1127.952602 
  990000     291.806360   -4715.626056   -5586.315206       0.000000       0.000000       0.000000   24839.178414  -31558.243508    1132.749888 
 1000000     294.220542   -4660.121857   -5538.014422       0.000000       0.000000       0.000000   24913.550718  -31561.327508    1109.762368 
 1010000     302.560652   -4677.311627   -5580.089335       0.000000       0.000000       0.000000   24819.054172  -31561.374250    1162.230743 
 1020000     298.335758   -4611.221274   -5501.392782       0.000000       0.000000       0.000000   24976.750543  -31558.186150    1080.042825 
 1030000     298.967406   -4639.659236   -5531.715448       0.000000       0.000000       0.000000   24979.554123  -31558.743683    1047.474112 
 1040000     300.495323   -4652.721898   -5549.337095       0.000000       0.000000       0.000000   24868.084729  -31557.246120    1139.824296 
 1050000     300.259091   -4596.332191   -5492.242522       0.000000       0.000000       0.000000   24913.941874  -31554.894624    1148.710229 
 1060000     305.197762   -4625.290078   -5535.936370       0.000000       0.000000       0.000000   24913.022224  -31555.013908    1106.055314 
 1070000     299.348409   -4661.799944   -5554.992991       0.000000       0.000000       0.000000   24856.313274  -31559.140206    1147.833941 
 1080000     298.559018   -4612.547191   -5503.384858       0.000000       0.000000       0.000000   25012.490286  -31559.597658    1043.722514 
 1090000     288.197906   -4735.417265   -5595.339543       0.000000       0.000000       0.000000   24833.771776  -31556.389359    1127.278039 
 1100000     306.002127   -4595.685314   -5508.731663       0.000000       0.000000       0.000000   24934.567846  -31554.880647    1111.581138 
 1110000     301.029201   -4593.575584   -5491.783764       0.000000       0.000000       0.000000   25030.664999  -31557.611789    1035.163026 
 1120000     300.254974   -4582.126175   -5478.024221       0.000000       0.000000       0.000000   24968.595819  -31556.662647    1110.042607 
 1130000     288.041960   -4659.432782   -5518.889749       0.000000       0.000000       0.000000   24962.070433  -31560.527616    1079.567433 
 1140000     296.351542   -4666.549579   -5550.800602       0.000000       0.000000       0.000000   24886.009034  -31559.687615    1122.877978 
 1150000     312.747741   -4577.528234   -5510.702086       0.000000       0.000000       0.000000   24914.977864  -31550.928334    1125.248384 
 1160000     310.495783   -4623.227033   -5549.681513       0.000000       0.000000       0.000000   24919.730783  -31557.767063    1088.354768 
 1170000     299.070758   -4557.455854   -5449.820450       0.000000       0.000000       0.000000   25073.572327  -31560.440054    1037.047278 
 1180000     291.533630   -4658.353669   -5528.229048       0.000000       0.000000       0.000000   24929.287500  -31561.213826    1103.697278 
 1190000     290.963268   -4685.190122   -5553.363661       0.000000       0.000000       0.000000   24913.628877  -31558.740819    1091.748281 
 1200000     307.490269   -4555.805682   -5473.292337       0.000000       0.000000       0.000000   24997.192596  -31561.918102    1091.433169 
 1210000     297.638084   -4687.566018   -5575.655813       0.000000       0.000000       0.000000   24851.347295  -31559.764401    1132.761292 
 1220000     303.289973   -4666.880194   -5571.834044       0.000000       0.000000       0.000000   24914.505793  -31558.304608    1071.964772 
 1230000     310.243743   -4637.341690   -5563.044135       0.000000       0.000000       0.000000   24870.916116  -31559.090345    1125.130094 
 1240000     288.751957   -4689.086353   -5550.661803       0.000000       0.000000       0.000000   24879.963103  -31557.487331    1126.862425 
 1250000     298.184693   -4648.929858   -5538.650618       0.000000       0.000000       0.000000   24981.599281  -31558.867268    1038.617368 
 1260000     309.096163   -4614.887415   -5537.165722       0.000000       0.000000       0.000000   24920.613506  -31556.585203    1098.805975 
 1270000     294.591199   -4604.326167   -5483.324693       0.000000       0.000000       0.000000   25016.349754  -31556.653239    1056.978792 
 1280000     296.698182   -4666.788222   -5552.073545       0.000000       0.000000       0.000000   24881.359685  -31559.544328    1126.111098 
 1290000     286.753063   -4653.137157   -5508.748324       0.000000       0.000000       0.000000   25017.416935  -31561.289629    1035.124369 
 1300000     304.740213   -4598.608728   -5507.889790       0.000000       0.000000       0.000000   24924.108888  -31558.056197    1126.057519 
 1310000     292.881498   -4706.118071   -5580.015207       0.000000       0.000000       0.000000   24866.173318  -31559.431961    1113.243436 
 1320000     297.366725   -4645.638900   -5532.919016       0.000000       0.000000       0.000000   24951.707168  -31562.067513    1077.441328 
 1330000     299.487200   -4612.520887   -5506.128058       0.000000       0.000000       0.000000   24933.028071  -31556.364715    1117.208586 
 1340000     303.983900   -4615.821925   -5522.846308       0.000000       0.000000       0.000000   24988.360121  -31556.729777    1045.523349 
 1350000     295.539047   -4673.284602   -5555.111310       0.000000       0.000000       0.000000   24823.778829  -31556.946483    1178.056344 
 1360000     312.407550   -4595.029086   -5527.187878       0.000000       0.000000       0.000000   24958.414839  -31559.941455    1074.338737 
 1370000     301.379983   -4672.119174   -5571.374011       0.000000       0.000000       0.000000   24964.806817  -31559.623949    1023.443121 
 1380000     294.394374   -4634.205035   -5512.616278       0.000000       0.000000       0.000000   24938.941738  -31553.723018    1102.165003 
 1390000     304.430469   -4638.637684   -5546.994533       0.000000       0.000000       0.000000   24903.471533  -31560.291339    1109.825272 
 1400000     295.584388   -4620.595666   -5502.557661       0.000000       0.000000       0.000000   24964.617394  -31559.275420    1092.100365 
 1410000     305.427268   -4603.150974   -5514.482065       0.000000       0.000000       0.000000   24975.147965  -31560.668801    1071.038771 
 1420000     296.062156   -4599.977745   -5483.365299       0.000000       0.000000       0.000000   25012.658167  -31556.286834    1060.263367 
 1430000     293.677047   -4713.850071   -5590.120961       0.000000       0.000000       0.000000   24818.066421  -31562.252526    1154.065144 
 1440000     297.157632   -4605.153229   -5491.809455       0.000000       0.000000       0.000000   25001.411120  -31556.580286    1063.359710 
 1450000     302.430854   -4630.708343   -5533.098762       0.000000       0.000000       0.000000   24942.543364  -31557.015680    1081.373553 
 1460000     308.868335   -4569.418851   -5491.017365       0.000000       0.000000       0.000000   24997.003701  -31560.506683    1072.485618 
 1470000     297.368871   -4684.412913   -5571.699433       0.000000       0.000000       0.000000   24802.614602  -31561.147181    1186.833146 
 1480000     312.258536   -4574.986820   -5506.700984       0.000000       0.000000       0.000000   24992.451406  -31557.552376    1058.399986 
 1490000     300.949527   -4629.532941   -5527.503389       0.000000       0.000000       0.000000   24884.577088  -31560.687637    1148.607161 
 1500000     297.546127   -4642.738339   -5530.553753       0.000000       0.000000       0.000000   24944.639255  -31554.345087    1079.152079 
 1510000     312.088703   -4625.169637   -5556.377058       0.000000       0.000000       0.000000   24850.976318  -31561.082808    1153.729431 
 1520000     299.484856   -4668.708534   -5562.308710       0.000000       0.000000       0.000000   24865.660990  -31558.708723    1130.739023 
 1530000     294.096839   -4675.659543   -5553.183003       0.000000       0.000000       0.000000   24910.876863  -31556.296135    1092.236269 
 1540000     299.174195   -4659.848197   -5552.521425       0.000000       0.000000       0.000000   24937.311782  -31555.896518    1066.063311 
 1550000     306.418268   -4628.995461   -5543.283489       0.000000       0.000000       0.000000   24905.502177  -31557.398471    1108.612805 
 1560000     287.620662   -4717.255435   -5575.455338       0.000000       0.000000       0.000000   24859.035623  -31559.012863    1124.521902 
 1570000     304.593448   -4605.403522   -5514.246667       0.000000       0.000000       0.000000   24939.614669  -31556.791277    1102.929942 
 1580000     299.744416   -4637.717830   -5532.092478       0.000000       0.000000       0.000000   24994.507846  -31558.487360    1031.887036 
 1590000     300.009522   -4590.425594   -5485.591264       0.000000       0.000000       0.000000   25012.076158  -31556.808639    1059.141217 
 1600000     292.048698   -4555.283271   -5426.695505       0.000000       0.000000       0.000000   25083.546001  -31559.508483    1049.266976 
 1610000     289.444022   -4638.467384   -5502.107811       0.000000       0.000000       0.000000   24960.041385  -31555.856291    1093.707094 
 1620000     299.625813   -4647.183223   -5541.203985       0.000000       0.000000       0.000000   24921.859244  -31558.319502    1095.256272 
 1630000     297.642351   -4659.832724   -5547.935249       0.000000       0.000000       0.000000   24862.554937  -31556.890367    1146.400181 
 1640000     293.972113   -4669.196213   -5546.347517       0.000000       0.000000       0.000000   24863.347255  -31557.016109    1147.321337 
 1650000     304.843720   -4560.187213   -5469.777118       0.000000       0.000000       0.000000   25052.531334  -31555.669440    1033.360988 
 1660000     301.373875   -4673.168156   -5572.404769       0.000000       0.000000       0.000000   24922.614888  -31556.358839    1061.339182 
 1670000     300.488844   -4650.300424   -5546.896291       0.000000       0.000000       0.000000   24938.475725  -31559.381725    1074.009708 
 1680000     290.968743   -4640.118489   -5508.308366       0.000000       0.000000       0.000000   25035.417982  -31555.968918    1012.242571 
 1690000     289.601588   -4757.545919   -5621.656491       0.000000       0.000000       0.000000   24832.505390  -31560.490409    1106.328528 
 1700000     291.319310   -4647.675954   -5516.911848       0.000000       0.000000       0.000000   25010.385114  -31559.657524    1032.360562 
 1710000     303.950420   -4587.193879   -5494.118364       0.000000       0.000000       0.000000   24894.531859  -31558.224102    1169.573880 
 1720000     295.726105   -4656.221450   -5538.606300       0.000000       0.000000       0.000000   24933.200855  -31562.031884    1090.224729 
 1730000     297.700086   -4621.040777   -5509.315573       0.000000       0.000000       0.000000   25025.586964  -31557.846859    1022.944322 
 1740000     294.062147   -4713.373057   -5590.793003       0.000000       0.000000       0.000000   24860.396988  -31558.688623    1107.498633 
 1750000     304.639067   -4616.350088   -5525.329352       0.000000       0.000000       0.000000   24977.138020  -31560.411134    1057.943762 
 1760000     303.244107   -4651.140096   -5555.957091       0.000000       0.000000       0.000000   24924.317151  -31562.575971    1082.301730 
 1770000     299.731351   -4652.799730   -5547.135396       0.000000       0.000000       0.000000   24971.460589  -31559.609083    1041.013097 
 1780000     309.720702   -4591.703690   -5515.845488       0.000000       0.000000       0.000000   24980.299603  -31558.130839    1061.985748 
 1790000     300.988223   -4644.686934   -5542.772843       0.000000       0.000000       0.000000   24925.131556  -31560.337311    1092.432912 
 1800000     291.091278   -4640.619709   -5509.175205       0.000000       0.000000       0.000000   24933.545533  -31554.077411    1111.356673 
 1810000     298.018350   -4603.173514   -5492.397942       0.000000       0.000000       0.000000   25005.552068  -31558.698006    1060.747996 
 1820000     316.271074   -4545.649511   -5489.336252       0.000000       0.000000       0.000000   25036.633081  -31559.199896    1033.230564 
 1830000     294.132696   -4643.236202   -5520.866653       0.000000       0.000000       0.000000   24952.001485  -31558.297345    1085.429207 
 1840000     300.851301   -4636.536391   -5534.213754       0.000000       0.000000       0.000000   24923.916768  -31560.070864    1101.940343 
 1850000     302.462606   -4640.697289   -5543.182447       0.000000       0.000000       0.000000   24936.880033  -31560.898002    1080.835521 
 1860000     325.260138   -4611.433306   -5581.941534       0.000000       0.000000       0.000000   24843.297191  -31561.978307    1136.739582 
 1870000     297.053634   -4666.262807   -5552.608724       0.000000       0.000000       0.000000   24910.022990  -31558.302049    1095.670335 
 1880000     291.489151   -4719.224283   -5588.966949       0.000000       0.000000       0.000000   24875.558862  -31562.281603    1097.755792 
 1890000     300.488457   -4621.285547   -5517.880260       0.000000       0.000000       0.000000   24915.603409  -31560.868633    1127.384965 
 1900000     296.025183   -4572.759001   -5456.036237       0.000000       0.000000       0.000000   25017.302229  -31553.159013    1079.820547 
 1910000     307.969960   -4661.301511   -5580.219464       0.000000       0.000000       0.000000   24850.696161  -31559.097035    1128.181410 
 1920000     291.941584   -4576.860465   -5447.953096       0.000000       0.000000       0.000000   25023.829796  -31561.052088    1089.269196 
 1930000     296.263852   -4610.130166   -5494.119540       0.000000       0.000000       0.000000   24939.624654  -31556.138791    1122.394598 
 1940000     314.328972   -4630.195381   -5568.087294       0.000000       0.000000       0.000000   24853.614911  -31555.666756    1133.964550 
 1950000     303.004976   -4562.762770   -5466.866249       0.000000       0.000000       0.000000   25049.674511  -31549.989676    1033.448916 
 1960000     295.110519   -4630.821686   -5511.369756       0.000000       0.000000       0.000000   24964.849392  -31559.262810    1083.043662 
 1970000     292.946179   -4642.915489   -5517.005621       0.000000       0.000000       0.000000   25010.528198  -31556.688869    1029.155049 
 1980000     304.824193   -4623.389529   -5532.921171       0.000000       0.000000       0.000000   24895.197714  -31557.069203    1128.950318 
 1990000     300.861805   -4629.092417   -5526.801121       0.000000       0.000000       0.000000   24885.201162  -31560.045650    1148.043366 
 2000000     297.956713   -4717.323405   -5606.363921       0.000000       0.000000       0.000000   24802.422885  -31559.998511    1151.211705 
 2010000     298.545544   -4626.978655   -5517.776121       0.000000       0.000000       0.000000   24920.631085  -31556.721799    1118.314592 
 2020000     300.118412   -4602.472629   -5497.963205       0.000000       0.000000       0.000000   24972.818806  -31557.525664    1086.743653 
 2030000     297.326158   -4670.340857   -5557.499931       0.000000       0.000000       0.000000   24915.139368  -31563.566323    1090.927024 
 2040000     313.791421   -4594.569096   -5530.857071       0.000000       0.000000       0.000000   24923.307521  -31559.692337    1105.527745 
 2050000     302.859452   -4591.926271   -5495.595536       0.000000       0.000000       0.000000   25004.003560  -31561.477218    1061.878122 
 2060000     310.364648   -4605.493174   -5531.556373       0.000000       0.000000       0.000000   24937.963851  -31559.310323    1089.790099 
 2070000     309.761247   -4592.847722   -5517.110498       0.000000       0.000000       0.000000   24979.567490  -31556.914094    1060.236106 
 2080000     313.620782   -4601.081413   -5536.860235       0.000000       0.000000       0.000000   24933.481519  -31558.641424    1088.299671 
 2090000     292.943366   -4656.602947   -5530.684686       0.000000       0.000000       0.000000   24915.773150  -31555.601231    1109.143395 
 2100000     285.725327   -4684.209646   -5536.754265       0.000000       0.000000       0.000000   24990.885805  -31555.334071    1027.694001 
 2110000     307.209412   -4594.121361   -5510.769997       0.000000       0.000000       0.000000   24924.405284  -31557.094912    1121.919630 
 2120000     301.664342   -4709.704614   -5609.807920       0.000000       0.000000       0.000000   24813.121819  -31560.392195    1137.462455 
 2130000     300.867686   -4647.692383   -5545.418635       0.000000       0.000000       0.000000   24902.636376  -31558.715595    1110.660584 
 2140000     308.258375   -4578.353573   -5498.132094       0.000000       0.000000       0.000000   24934.792864  -31557.692035    1124.767076 
 2150000     310.657321   -4599.558108   -5526.494583       0.000000       0.000000       0.000000   24908.742188  -31559.006960    1123.770188 
 2160000     294.446846   -4687.121368   -5565.689176       0.000000       0.000000       0.000000   24912.896038  -31555.321150    1076.735936 
 2170000     300.635706   -4650.967012   -5548.001085       0.000000       0.000000       0.000000   24931.899706  -31559.432853    1079.532062 
 2180000     308.029021   -4632.927566   -5552.021743       0.000000       0.000000       0.000000   24944.239056  -31560.118246    1063.857447 
 2190000     302.266246   -4674.305098   -5576.204359       0.000000       0.000000       0.000000   24903.261856  -31563.330386    1083.864171 
 2200000     297.094791   -4641.898969   -5528.367692       0.000000       0.000000       0.000000   24984.046197  -31555.588825    1043.174936 
 2210000     308.208486   -4604.497519   -5524.127183       0.000000       0.000000       0.000000   25016.686781  -31561.489038    1020.675075 
 2220000     307.330786   -4613.455266   -5530.466056       0.000000       0.000000       0.000000   24959.414814  -31555.575554    1065.694684 
 2230000     299.355129   -4667.747124   -5560.960221       0.000000       0.000000       0.000000   24879.131414  -31558.859850    1118.768215 
 2240000     318.985194   -4648.058920   -5599.844025       0.000000       0.000000       0.000000   24882.599947  -31561.973770    1079.529798 
 2250000     291.064019   -4659.390865   -5527.865024       0.000000       0.000000       0.000000   24943.225819  -31556.607488    1085.516645 
 2260000     301.163976   -4637.891344   -5536.501661       0.000000       0.000000       0.000000   24925.620070  -31561.106017    1098.984285 
 2270000     283.068494   -4682.342123   -5526.959308       0.000000       0.000000       0.000000   24959.167950  -31555.070740    1068.943482 
 2280000     300.971091   -4586.757036   -5484.791826       0.000000       0.000000       0.000000   25004.214625  -31554.318189    1065.311738 
 2290000     308.071819   -4580.234201   -5499.456078       0.000000       0.000000       0.000000   25026.319787  -31563.645018    1037.869154 
 2300000     300.664976   -4634.656471   -5531.777878       0.000000       0.000000       0.000000   24975.871821  -31561.394395    1053.744696 
 2310000     311.449351   -4589.853532   -5519.153260       0.000000       0.000000       0.000000   24994.233469  -31558.969914    1045.583184 
 2320000     285.977591   -4749.972858   -5603.270179       0.000000       0.000000       0.000000   24837.525740  -31560.089465    1119.293545 
 2330000     301.005192   -4597.691159   -5495.827700       0.000000       0.000000       0.000000   24996.847991  -31554.568241    1061.892551 
 2340000     303.015973   -4575.791436   -5479.927727       0.000000       0.000000       0.000000   24969.407178  -31557.537331    1108.202426 
 2350000     298.928388   -4632.145632   -5524.085425       0.000000       0.000000       0.000000   24927.188371  -31557.599974    1106.326178 
 2360000     288.228593   -4682.654718   -5542.668559       0.000000       0.000000       0.000000   24955.356561  -31559.544017    1061.518897 
 2370000     303.336406   -4637.045162   -5542.137558       0.000000       0.000000       0.000000   24910.741656  -31558.127422    1105.248207 
 2380000     314.661849   -4592.409165   -5531.294316       0.000000       0.000000       0.000000   24957.513428  -31563.715051    1074.907308 
 2390000     297.619554   -4574.264339   -5462.298846       0.000000       0.000000       0.000000   24975.836887  -31555.773305    1117.637573 
 2400000     299.593567   -4619.682344   -5513.606890       0.000000       0.000000       0.000000   24968.172416  -31556.676417    1074.897111 
 2410000     290.550574   -4594.537919   -5461.480065       0.000000       0.000000       0.000000   25081.933804  -31559.788734    1016.374865 
 2420000     291.428797   -4689.106235   -5558.668815       0.000000       0.000000       0.000000   24907.424280  -31558.636577    1092.543481 
 2430000     294.692018   -4577.431361   -5456.730711       0.000000       0.000000       0.000000   25051.434499  -31559.525205    1051.359995 
 2440000     297.212800   -4606.934656   -5493.755493       0.000000       0.000000       0.000000   24928.073929  -31556.675735    1134.846314 
 2450000     301.165303   -4597.529148   -5496.143427       0.000000       0.000000       0.000000   24994.710856  -31554.514596    1063.660313 
 2460000     294.974735   -4697.277436   -5577.420356       0.000000       0.000000       0.000000   24885.633244  -31558.511060    1095.457461 
 2470000     306.753914   -4603.754698   -5519.044223       0.000000       0.000000       0.000000   24986.792401  -31560.416843    1054.580219 
 2480000     298.046300   -4673.102086   -5562.409911       0.000000       0.000000       0.000000   24880.995810  -31555.060295    1111.654574 
 2490000     296.605614   -4636.825705   -5521.834824       0.000000       0.000000       0.000000   24987.313667  -31557.356940    1048.208449 
 2500000     292.446583   -4680.238178   -5552.837620       0.000000       0.000000       0.000000   24884.780176  -31560.218096    1122.600300 
 2510000     299.393564   -4592.800427   -5486.128207       0.000000       0.000000       0.000000   25029.839364  -31555.778950    1039.811380 
 2520000     300.494990   -4625.567041   -5522.181247       0.000000       0.000000       0.000000   24938.996022  -31554.898798    1093.721529 
 2530000     304.835753   -4568.916527   -5478.482661       0.000000       0.000000       0.000000   25056.532874  -31560.860016    1025.844481 
 2540000     315.874764   -4609.967136   -5552.471371       0.000000       0.000000       0.000000   24927.881017  -31561.015057    1080.662669 
 2550000     297.494268   -4672.001258   -5559.661937       0.000000       0.000000       0.000000   24879.435051  -31559.002354    1119.905365 
 2560000     286.161783   -4726.780266   -5580.627178       0.000000       0.000000       0.000000   24830.439868  -31558.359030    1147.291984 
 2570000     308.433860   -4568.635962   -5488.938095       0.000000       0.000000       0.000000   25029.236616  -31558.392787    1040.218076 
 2580000     295.371307   -4646.202936   -5527.529143       0.000000       0.000000       0.000000   24971.048155  -31556.435598    1057.858300 
 2590000     297.290460   -4626.996687   -5514.049244       0.000000       0.000000       0.000000   24948.851689  -31560.033206    1097.132273 
 2600000     298.694510   -4627.115963   -5518.357912       0.000000       0.000000       0.000000   24980.235931  -31560.652688    1062.058845 
 2610000     292.885977   -4633.142222   -5507.052722       0.000000       0.000000       0.000000   24972.489368  -31559.434214    1079.892123 
 2620000     291.648056   -4632.978178   -5503.194982       0.000000       0.000000       0.000000   24925.572041  -31561.052034    1132.285011 
 2630000     307.831571   -4564.296581   -5482.801610       0.000000       0.000000       0.000000   24966.960118  -31556.833352    1107.071625 
 2640000     294.390876   -4665.521709   -5543.922515       0.000000       0.000000       0.000000   24935.566320  -31557.659752    1078.170918 
 2650000     325.114062   -4550.541771   -5520.614138       0.000000       0.000000       0.000000   24941.414393  -31560.390886    1098.362355 
 2660000     303.419692   -4632.225397   -5537.566300       0.000000       0.000000       0.000000   24974.681416  -31557.117726    1044.870011 
 2670000     308.519814   -4589.739048   -5510.297649       0.000000       0.000000       0.000000   24855.045905  -31553.551388    1188.207834 
 2680000     293.841305   -4642.922692   -5519.683692       0.000000       0.000000       0.000000   24997.696945  -31557.195729    1039.815093 
 2690000     301.231371   -4711.583733   -5610.395144       0.000000       0.000000       0.000000   24841.998081  -31557.412154    1105.018928 
 2700000     295.529164   -4660.512498   -5542.309717       0.000000       0.000000       0.000000   24965.738047  -31557.386545    1049.338781 
 2710000     287.380037   -4663.101548   -5520.583477       0.000000       0.000000       0.000000   25003.183884  -31559.084727    1035.317366 
 2720000     291.563744   -4637.860048   -5507.825283       0.000000       0.000000       0.000000   24991.120693  -31553.712169    1054.766192 
 2730000     290.218676   -4623.114542   -5489.066376       0.000000       0.000000       0.000000   24969.278220  -31557.745278    1099.400683 
 2740000     296.626183   -4592.072917   -5477.143412       0.000000       0.000000       0.000000   24993.947474  -31554.953677    1083.862791 
 2750000     289.002324   -4668.096544   -5530.419038       0.000000       0.000000       0.000000   24986.046687  -31561.175571    1044.709845 
 2760000     305.244175   -4612.776529   -5523.561309       0.000000       0.000000       0.000000   24932.727313  -31553.436243    1097.147621 
 2770000     292.549905   -4675.458268   -5548.366000       0.000000       0.000000       0.000000   24862.446297  -31561.190893    1150.378596 
 2780000     301.210849   -4612.986053   -5511.736232       0.000000       0.000000       0.000000   24942.641134  -31560.066716    1105.689351 
 2790000     299.041565   -4587.839545   -5480.117033       0.000000       0.000000       0.000000   24996.860182  -31560.035196    1083.057982 
 2800000     293.275070   -4667.924066   -5542.995538       0.000000       0.000000       0.000000   24876.114596  -31558.368451    1139.258317 
 2810000     300.448654   -4615.337736   -5511.813685       0.000000       0.000000       0.000000   24974.929573  -31556.303342    1069.560084 
 2820000     306.868018   -4719.409018   -5635.039005       0.000000       0.000000       0.000000   24767.727449  -31559.490658    1156.724204 
 2830000     307.042823   -4632.852044   -5549.003614       0.000000       0.000000       0.000000   24905.323955  -31557.890072    1103.562504 
 2840000     304.469340   -4636.112007   -5544.584841       0.000000       0.000000       0.000000   24971.568230  -31553.661965    1037.508894 
 2850000     297.649798   -4619.494464   -5507.619210       0.000000       0.000000       0.000000   24945.527383  -31560.658956    1107.512363 
 2860000     302.541466   -4610.600444   -5513.320906       0.000000       0.000000       0.000000   24967.518029  -31557.079901    1076.240966 
 2870000     312.199908   -4613.507958   -5545.047190       0.000000       0.000000       0.000000   24915.688405  -31557.897501    1097.161905 
 2880000     295.962057   -4689.497220   -5572.586101       0.000000       0.000000       0.000000   24804.485759  -31559.405420    1182.333560 
 2890000     303.598876   -4616.693350   -5522.568901       0.000000       0.000000       0.000000   24901.623302  -31556.776247    1132.584045 
 2900000     281.397732   -4716.263434   -5555.895415       0.000000       0.000000       0.000000   24850.312290  -31559.478600    1153.270895 
 2910000     301.230988   -4625.086026   -5523.896295       0.000000       0.000000       0.000000   25014.721164  -31557.727124    1019.109665 
 2920000     312.570831   -4542.721888   -5475.367878       0.000000       0.000000       0.000000   25001.421343  -31556.358654    1079.569432 
 2930000     288.921849   -4711.977442   -5574.059815       0.000000       0.000000       0.000000   24865.855251  -31560.697092    1120.782026 
 2940000     312.348029   -4578.822598   -5510.803791       0.000000       0.000000       0.000000   24958.364372  -31558.405279    1089.237116 
 2950000     301.992790   -4586.107848   -5487.191174       0.000000       0.000000       0.000000   24984.661533  -31557.166549    1085.313843 
 2960000     297.396365   -4603.861487   -5491.230044       0.000000       0.000000       0.000000   24986.559862  -31557.365674    1079.575768 
 2970000     295.649195   -4748.824371   -5630.979737       0.000000       0.000000       0.000000   24738.207333  -31561.518623    1192.331553 
 2980000     289.692840   -4749.871616   -5614.254463       0.000000       0.000000       0.000000   24786.838807  -31561.728831    1160.635562 
 2990000     296.891919   -4640.025046   -5525.888440       0.000000       0.000000       0.000000   24873.526648  -31554.929252    1155.514164 
 3000000     303.283955   -4647.849933   -5552.785825       0.000000       0.000000       0.000000   24906.617402  -31555.965009    1096.561782 
 3010000     292.208670   -4669.575869   -5541.465427       0.000000       0.000000       0.000000   24919.299880  -31559.307579    1098.542272 
 3020000     300.329144   -4673.461069   -5569.580425       0.000000       0.000000       0.000000   24844.951052  -31559.080515    1144.549038 
 3030000     305.546831   -4681.219051   -5592.906894       0.000000       0.000000       0.000000   24847.003888  -31559.042148    1119.131366 
 3040000     293.543420   -4691.281586   -5567.153759       0.000000       0.000000       0.000000   24842.529628  -31555.501479    1145.818093 
 3050000     299.720077   -4611.990329   -5506.292357       0.000000       0.000000       0.000000   24955.130653  -31560.350755    1098.927745 
 3060000     295.142293   -4566.927963   -5447.570840       0.000000       0.000000       0.000000   24991.961135  -31557.508028    1117.976052 
 3070000     288.929543   -4670.607451   -5532.712780       0.000000       0.000000       0.000000   24993.754226  -31558.583464    1032.116458 
 3080000     296.762767   -4619.718007   -5505.196039       0.000000       0.000000       0.000000   24940.000662  -31558.783915    1113.587214 
 3090000     290.736072   -4652.248540   -5519.744175       0.000000       0.000000       0.000000   24981.352860  -31559.565414    1058.468379 
 3100000     307.225950   -4582.629112   -5499.327094       0.000000       0.000000       0.000000   25069.762316  -31558.334833     989.245423 
 3110000     304.927749   -4643.897093   -5553.737723       0.000000       0.000000       0.000000   24910.146897  -31558.861580    1094.976960 
 3120000     303.458190   -4621.696403   -5527.152176       0.000000       0.000000       0.000000   24909.461503  -31557.003800    1120.390121 
 3130000     295.711099   -4712.782961   -5595.123035       0.000000       0.000000       0.000000   24877.522641  -31555.934226    1083.288550 
 3140000     307.723523   -4625.047462   -5543.230098       0.000000       0.000000       0.000000   24897.386957  -31559.476245    1118.859190 
 3150000     289.960926   -4669.127478   -5534.310240       0.000000       0.000000       0.000000   24953.446821  -31562.280052    1074.522991 
 3160000     299.366039   -4609.764847   -5503.010499       0.000000       0.000000       0.000000   24915.458054  -31554.688520    1136.219967 
 3170000     302.043062   -4624.981416   -5526.214743       0.000000       0.000000       0.000000   24915.212972  -31559.375427    1117.947712 
 3180000     302.320536   -4594.070291   -5496.131545       0.000000       0.000000       0.000000   24984.547789  -31557.919472    1077.240139 
 3190000     299.340305   -4633.888223   -5527.057089       0.000000       0.000000       0.000000   24904.114969  -31555.533608    1124.361550 
 3200000     297.061591   -4610.710326   -5497.079985       0.000000       0.000000       0.000000   24995.630363  -31556.858494    1064.148146 
 3210000     302.897407   -4509.923931   -5413.706447       0.000000       0.000000       0.000000   25078.088105  -31558.212555    1066.418003 
 3220000     301.398152   -4580.919710   -5480.228763       0.000000       0.000000       0.000000   25053.267071  -31556.469112    1022.973278 
 3230000     292.003735   -4693.858500   -5565.136575       0.000000       0.000000       0.000000   24913.780697  -31561.650687    1082.733415 
 3240000     308.339947   -4627.693305   -5547.715221       0.000000       0.000000       0.000000   24948.257740  -31558.653728    1062.680766 
 3250000     291.901034   -4636.425849   -5507.397487       0.000000       0.000000       0.000000   25005.371705  -31559.104871    1046.335679 
 3260000     313.947736   -4536.052907   -5472.807293       0.000000       0.000000       0.000000   24983.004666  -31556.499872    1100.687914 
 3270000     300.787576   -4616.129466   -5513.616688       0.000000       0.000000       0.000000   25004.736535  -31557.274176    1038.920954 
 3280000     293.882151   -4704.284515   -5581.167390       0.000000       0.000000       0.000000   24824.636995  -31558.581242    1152.776857 
 3290000     290.575768   -4596.986512   -5464.003833       0.000000       0.000000       0.000000   25001.811380  -31551.353207    1085.537994 
 3300000     299.123038   -4608.646984   -5501.167572       0.000000       0.000000       0.000000   24957.881214  -31558.128109    1099.079323 
 3310000     293.466868   -4689.794823   -5565.438581       0.000000       0.000000       0.000000   24812.557386  -31555.116821    1177.120855 
 3320000     294.787965   -4647.007843   -5526.593477       0.000000       0.000000       0.000000   24915.420060  -31555.877509    1113.863972 
 3330000     300.203648   -4596.119193   -5491.864094       0.000000       0.000000       0.000000   24941.963120  -31555.063517    1121.236302 
 3340000     303.357235   -4576.479200   -5481.633745       0.000000       0.000000       0.000000   25025.951626  -31560.521066    1052.935696 
 3350000     300.999122   -4649.089216   -5547.207646       0.000000       0.000000       0.000000   24867.098123  -31557.233934    1142.928165 
 3360000     292.613656   -4678.163431   -5551.261383       0.000000       0.000000       0.000000   24914.859610  -31559.945665    1093.824673 
 3370000     307.357273   -4627.744707   -5544.834530       0.000000       0.000000       0.000000   24889.880701  -31561.537527    1126.822296 
 3380000     307.898587   -4603.752778   -5522.457766       0.000000       0.000000       0.000000   24873.184788  -31562.244425    1166.601870 
 3390000     315.720610   -4639.118742   -5581.163012       0.000000       0.000000       0.000000   24895.864568  -31560.880449    1083.852869 
 3400000     307.122417   -4564.292234   -5480.681295       0.000000       0.000000       0.000000   25054.824118  -31558.301537    1022.796125 
 3410000     294.684396   -4647.883405   -5527.160014       0.000000       0.000000       0.000000   24924.723811  -31556.440515    1104.556689 
 3420000     313.992814   -4543.492860   -5480.381749       0.000000       0.000000       0.000000   25013.744471  -31558.662959    1064.536739 
 3430000     305.059465   -4603.558586   -5513.792230       0.000000       0.000000       0.000000   24993.379107  -31559.788527    1052.617190 
 3440000     309.533425   -4633.477668   -5557.060673       0.000000       0.000000       0.000000   24882.033998  -31560.157571    1121.062900 
 3450000     308.240025   -4632.883222   -5552.606991       0.000000       0.000000       0.000000   24909.106991  -31553.385030    1091.671048 
 3460000     307.933068   -4603.697284   -5522.505158       0.000000       0.000000       0.000000   24957.042641  -31557.095064    1077.547265 
 3470000     310.047411   -4604.340298   -5529.456928       0.000000       0.000000       0.000000   24968.798257  -31555.166573    1056.911388 
 3480000     300.766705   -4632.033270   -5529.458215       0.000000       0.000000       0.000000   24921.157533  -31555.341720    1104.725972 
 3490000     320.395514   -4582.308693   -5538.301899       0.000000       0.000000       0.000000   24905.461542  -31558.792827    1115.029386 
 3500000     286.636225   -4610.118555   -5465.381102       0.000000       0.000000       0.000000   24988.963172  -31556.478594    1102.134321 
 3510000     297.190071   -4613.313179   -5500.066196       0.000000       0.000000       0.000000   24967.662139  -31561.862676    1094.134341 
 3520000     310.864248   -4576.967424   -5504.521326       0.000000       0.000000       0.000000   25018.601567  -31557.058136    1033.935243 
 3530000     298.020121   -4634.773587   -5524.003300       0.000000       0.000000       0.000000   24961.538453  -31560.928177    1075.386423 
 3540000     304.073660   -4622.508636   -5529.800843       0.000000       0.000000       0.000000   24942.229504  -31560.196070    1088.165723 
 3550000     302.278676   -4644.054492   -5545.990841       0.000000       0.000000       0.000000   24900.367719  -31558.245898    1111.887337 
 3560000     292.792628   -4706.683325   -5580.315292       0.000000       0.000000       0.000000   24832.572048  -31559.747230    1146.859890 
 3570000     303.635665   -4648.663693   -5554.649016       0.000000       0.000000       0.000000   24895.798573  -31560.067208    1109.619619 
 3580000     292.938133   -4678.949649   -5553.015772       0.000000       0.000000       0.000000   24861.317504  -31558.408955    1144.075679 
 3590000     306.523908   -4649.481282   -5564.084518       0.000000       0.000000       0.000000   24917.116272  -31558.363099    1077.162310 
 3600000     301.652238   -4645.355385   -5545.422575       0.000000       0.000000       0.000000   24927.125013  -31558.453733    1085.906144 
 3610000     290.682415   -4722.610816   -5589.946349       0.000000       0.000000       0.000000   24881.432339  -31562.263351    1090.884663 
 3620000     312.610074   -4501.076699   -5433.839780       0.000000       0.000000       0.000000   25124.256713  -31554.715060     996.618567 
 3630000     305.360098   -4622.590654   -5533.721322       0.000000       0.000000       0.000000   24911.244239  -31557.068633    1112.103072 
 3640000     303.669824   -4664.374482   -5570.461727       0.000000       0.000000       0.000000   24878.208829  -31554.500330    1105.829774 
 3650000     296.101456   -4667.416180   -5550.920997       0.000000       0.000000       0.000000   24899.487878  -31554.554526    1104.145650 
 3660000     290.547711   -4638.015796   -5504.949401       0.000000       0.000000       0.000000   24975.807695  -31554.843132    1074.086035 
 3670000     286.513106   -4628.359399   -5483.254585       0.000000       0.000000       0.000000   24960.063382  -31552.136772    1108.818804 
 3680000     297.164979   -4680.373910   -5567.052059       0.000000       0.000000       0.000000   24901.913661  -31559.655443    1090.689723 
 3690000     305.220621   -4674.645155   -5585.359654       0.000000       0.000000       0.000000   24838.214979  -31560.369580    1136.794948 
 3700000     292.873875   -4647.494972   -5521.369363       0.000000       0.000000       0.000000   24934.750330  -31560.196853    1104.077161 
 3710000     300.209628   -4660.120260   -5555.883003       0.000000       0.000000       0.000000   24819.721611  -31556.786673    1181.182059 
 3720000     300.380072   -4649.216929   -5545.488242       0.000000       0.000000       0.000000   24917.628691  -31562.894301    1099.777368 
 3730000     297.032727   -4617.793348   -5504.076883       0.000000       0.000000       0.000000   25010.190089  -31555.803680    1041.536707 
 3740000     287.444794   -4730.854077   -5588.529226       0.000000       0.000000       0.000000   24875.824191  -31560.291601    1095.938184 
 3750000     301.059993   -4560.091915   -5458.391972       0.000000       0.000000       0.000000   25055.609122  -31556.143284    1042.142190 
 3760000     282.631525   -4734.165796   -5577.479156       0.000000       0.000000       0.000000   24852.398611  -31556.631169    1126.753402 
 3770000     282.951199   -4663.942112   -5508.209313       0.000000       0.000000       0.000000   24922.062513  -31554.578965    1124.307139 
 3780000     307.878708   -4652.477396   -5571.123072       0.000000       0.000000       0.000000   24848.099639  -31560.317074    1141.094363 
 3790000     311.408776   -4684.169350   -5613.348008       0.000000       0.000000       0.000000   24861.626247  -31559.815249    1084.840993 
 3800000     290.833069   -4717.328190   -5585.113244       0.000000       0.000000       0.000000   24843.660322  -31559.535892    1130.762325 
 3810000     300.791081   -4572.787192   -5470.284871       0.000000       0.000000       0.000000   25006.584629  -31553.955099    1077.085599 
 3820000     309.851651   -4577.484748   -5502.017272       0.000000       0.000000       0.000000   24836.237242  -31560.002131    1221.747616 
 3830000     297.514668   -4634.337013   -5522.058561       0.000000       0.000000       0.000000   24959.489074  -31559.126979    1077.579344 
 3840000     307.078219   -4613.668383   -5529.925567       0.000000       0.000000       0.000000   24911.124858  -31557.490541    1116.440117 
 3850000     302.445115   -4604.857483   -5507.290453       0.000000       0.000000       0.000000   25020.331896  -31559.360501    1031.738152 
 3860000     291.075221   -4672.221279   -5540.728862       0.000000       0.000000       0.000000   24896.696605  -31558.347071    1120.921604 
 3870000     301.063073   -4647.418833   -5545.728080       0.000000       0.000000       0.000000   24963.317748  -31559.882630    1050.836802 
 3880000     304.207595   -4682.057422   -5589.749263       0.000000       0.000000       0.000000   24818.041438  -31559.956692    1152.165991 
 3890000     299.016969   -4642.946494   -5535.150594       0.000000       0.000000       0.000000   24998.710525  -31557.522193    1023.661075 
 3900000     291.339876   -4638.859775   -5508.157035       0.000000       0.000000       0.000000   24901.601455  -31557.519173    1147.760683 
 3910000     297.015144   -4630.667094   -5516.898165       0.000000       0.000000       0.000000   24963.522342  -31557.446582    1077.026075 
 3920000     303.042712   -4581.542183   -5485.758259       0.000000       0.000000       0.000000   24959.274900  -31558.331538    1113.298379 
 3930000     300.837429   -4646.598197   -5544.234169       0.000000       0.000000       0.000000   24913.000299  -31554.186477    1096.952010 
 3940000     302.559470   -4688.768035   -5591.542216       0.000000       0.000000       0.000000   24842.722467  -31561.414544    1127.149861 
 3950000     302.502121   -4600.458057   -5503.061122       0.000000       0.000000       0.000000   24868.935168  -31560.790393    1188.794104 
 3960000     306.030747   -4570.135562   -5483.267309       0.000000       0.000000       0.000000   24950.562198  -31560.392618    1126.563111 
 3970000     290.158789   -4623.858598   -5489.631742       0.000000       0.000000       0.000000   24895.387121  -31551.390743    1166.371880 
 3980000     298.060365   -4577.376810   -5466.726603       0.000000       0.000000       0.000000   24942.158463  -31555.632317    1146.747251 
 3990000     311.714169   -4572.422746   -5502.512634       0.000000       0.000000       0.000000   25014.910502  -31556.621748    1039.198612 
 4000000     299.625900   -4639.203293   -5533.224314       0.000000       0.000000       0.000000   24906.451843  -31560.747998    1121.071841 
 4010000     310.334195   -4594.195326   -5520.167660       0.000000       0.000000       0.000000   24896.176249  -31556.454596    1140.110687 
 4020000     310.964680   -4589.834738   -5517.688307       0.000000       0.000000       0.000000   24915.707626  -31555.647903    1122.251970 
 4030000     290.982316   -4657.081984   -5525.312360       0.000000       0.000000       0.000000   25014.931586  -31555.968936    1015.724990 
 4040000     304.688661   -4572.481836   -5481.609079       0.000000       0.000000       0.000000   24977.541381  -31558.749327    1099.598866 
 4050000     305.782912   -4609.376053   -5521.768311       0.000000       0.000000       0.000000   24960.493061  -31561.885878    1079.624506 
 4060000     303.479643   -4600.110091   -5505.629877       0.000000       0.000000       0.000000   24945.317463  -31554.853973    1103.906634 
 4070000     298.083858   -4650.224565   -5539.644455       0.000000       0.000000       0.000000   24930.293144  -31555.683259    1085.745660 
 4080000     313.383708   -4588.182412   -5523.253855       0.000000       0.000000       0.000000   24944.130925  -31559.238839    1091.854058 
 4090000     309.528153   -4596.889813   -5520.457086       0.000000       0.000000       0.000000   24919.165297  -31560.936122    1121.313739 
 4100000     298.834529   -4662.154016   -5553.813753       0.000000       0.000000       0.000000   24866.252804  -31557.241627    1137.175070 
 4110000     297.901052   -4626.295639   -5515.170076       0.000000       0.000000       0.000000   25067.715958  -31557.154855     974.268821 
 4120000     307.898543   -4582.557841   -5501.262698       0.000000       0.000000       0.000000   24959.124106  -31556.721827    1096.335023 
 4130000     306.303903   -4622.698375   -5536.645161       0.000000       0.000000       0.000000   24900.925507  -31557.929499    1120.358831 
 4140000     292.613348   -4647.932037   -5521.029071       0.000000       0.000000       0.000000   24903.508985  -31557.308778    1132.770722 
 4150000     290.187341   -4675.480201   -5541.338536       0.000000       0.000000       0.000000   24951.567812  -31557.743306    1064.836959 
 4160000     305.300464   -4639.080624   -5550.033357       0.000000       0.000000       0.000000   24865.063111  -31558.150367    1143.053899 
 4170000     305.501841   -4654.041145   -5565.594746       0.000000       0.000000       0.000000   24893.780781  -31558.216266    1098.840739 
 4180000     290.146348   -4647.509772   -5513.245792       0.000000       0.000000       0.000000   25017.563539  -31556.037686    1025.228355 
 4190000     303.942722   -4592.520462   -5499.421977       0.000000       0.000000       0.000000   25022.903411  -31557.929159    1035.603770 
 4200000     303.052971   -4565.935246   -5470.181930       0.000000       0.000000       0.000000   24975.541258  -31555.802679    1110.079490 
 4210000     306.908900   -4635.434674   -5551.186645       0.000000       0.000000       0.000000   24936.613304  -31558.123304    1070.323355 
 4220000     299.786073   -4668.137516   -5562.636460       0.000000       0.000000       0.000000   24864.478973  -31557.758459    1130.643026 
 4230000     294.079106   -4665.740507   -5543.211055       0.000000       0.000000       0.000000   24912.917470  -31555.240780    1099.112255 
 4240000     309.139351   -4562.063021   -5484.470189       0.000000       0.000000       0.000000   24991.231749  -31558.078343    1082.376405 
 4250000     295.803023   -4596.538880   -5479.153238       0.000000       0.000000       0.000000   24978.934915  -31555.480613    1097.392460 
 4260000     309.378496   -4503.908873   -5427.029602       0.000000       0.000000       0.000000   25019.507380  -31557.988763    1111.451781 
 4270000     297.587324   -4646.400510   -5534.338849       0.000000       0.000000       0.000000   24897.261824  -31560.011957    1128.411283 
 4280000     299.827263   -4675.631688   -5570.253533       0.000000       0.000000       0.000000   24887.236616  -31557.306440    1099.816292 
 4290000     301.902988   -4636.989882   -5537.805258       0.000000       0.000000       0.000000   24925.765167  -31557.462901    1093.892476 
 4300000     311.841579   -4593.824668   -5524.294721       0.000000       0.000000       0.000000   24891.149422  -31556.448883    1141.004740 
 4310000     299.737443   -4601.836259   -5496.190101       0.000000       0.000000       0.000000   25015.251750  -31559.540704    1048.098853 
 4320000     297.097952   -4580.132864   -5466.611017       0.000000       0.000000       0.000000   25058.757401  -31554.815026    1029.446608 
 4330000     289.913269   -4646.247469   -5511.288031       0.000000       0.000000       0.000000   24975.980959  -31561.623574    1074.354584 
 4340000     304.525265   -4626.771330   -5535.411033       0.000000       0.000000       0.000000   24924.941185  -31558.824511    1098.472293 
 4350000     292.914165   -4619.539658   -5493.534265       0.000000       0.000000       0.000000   25016.414751  -31556.786216    1046.837200 
 4360000     300.712168   -4632.542194   -5529.804414       0.000000       0.000000       0.000000   24959.844726  -31555.504778    1065.855638 
 4370000     291.828048   -4683.445902   -5554.199763       0.000000       0.000000       0.000000   24946.277761  -31559.193669    1058.716146 
 4380000     300.776843   -4625.307170   -5522.762366       0.000000       0.000000       0.000000   24919.701545  -31557.464927    1115.001016 
 4390000     307.940235   -4619.372934   -5538.202193       0.000000       0.000000       0.000000   24932.634377  -31556.063992    1085.227422 
 4400000     301.136068   -4645.682085   -5544.209132       0.000000       0.000000       0.000000   24867.266119  -31563.472652    1151.997401 
 4410000     314.294326   -4646.686473   -5584.475010       0.000000       0.000000       0.000000   24816.903942  -31557.221670    1155.842719 
 4420000     300.222884   -4716.590102   -5612.392400       0.000000       0.000000       0.000000   24840.394406  -31559.576184    1106.789378 
 4430000     288.778449   -4680.611629   -5542.266127       0.000000       0.000000       0.000000   24898.903472  -31556.167780    1114.998182 
 4440000     290.363134   -4653.792435   -5520.175301       0.000000       0.000000       0.000000   24987.675456  -31558.749215    1050.898458 
 4450000     292.759175   -4668.721868   -5542.254020       0.000000       0.000000       0.000000   24900.836036  -31555.814552    1112.724497 
 4460000     299.846311   -4628.770104   -5523.448787       0.000000       0.000000       0.000000   24923.351574  -31560.215809    1113.415448 
 4470000     307.832222   -4580.945648   -5499.452618       0.000000       0.000000       0.000000   25030.967758  -31557.083699    1026.663323 
 4480000     291.103400   -4651.700749   -5520.292414       0.000000       0.000000       0.000000   24923.997013  -31556.413508    1112.124082 
 4490000     307.407020   -4563.253176   -5480.491432       0.000000       0.000000       0.000000   25032.420094  -31555.635627    1042.724101 
 4500000     287.730058   -4653.341348   -5511.867664       0.000000       0.000000       0.000000   24905.030657  -31556.476075    1139.577753 
 4510000     310.029817   -4600.767271   -5525.831406       0.000000       0.000000       0.000000   24978.164894  -31562.301607    1058.305308 
 4520000     293.967246   -4644.257050   -5521.393833       0.000000       0.000000       0.000000   24985.590110  -31558.392578    1051.408636 
 4530000     298.187068   -4723.257415   -5612.985264       0.000000       0.000000       0.000000   24814.215499  -31559.669442    1132.468679 
 4540000     298.949725   -4654.257656   -5546.261114       0.000000       0.000000       0.000000   24901.167276  -31557.448925    1110.020535 
 4550000     291.935403   -4762.190426   -5633.264613       0.000000       0.000000       0.000000   24829.072855  -31560.683680    1098.346212 
 4560000     279.831219   -4724.634189   -5559.592023       0.000000       0.000000       0.000000   24883.462449  -31561.302573    1118.248100 
 4570000     316.506690   -4571.390402   -5515.780170       0.000000       0.000000       0.000000   25012.612064  -31559.045463    1030.653229 
 4580000     292.413018   -4638.645598   -5511.144887       0.000000       0.000000       0.000000   24983.507847  -31560.206056    1065.553322 
 4590000     294.250881   -4625.041466   -5503.024555       0.000000       0.000000       0.000000   24949.920361  -31556.911260    1103.966344 
 4600000     294.689553   -4704.639213   -5583.931209       0.000000       0.000000       0.000000   24816.043296  -31556.753062    1156.778557 
 4610000     293.844496   -4622.691238   -5499.461759       0.000000       0.000000       0.000000   24873.934756  -31554.976355    1181.579840 
 4620000     300.133630   -4637.583840   -5533.119823       0.000000       0.000000       0.000000   24941.122897  -31559.833793    1085.591073 
 4630000     308.492429   -4664.917554   -5585.394443       0.000000       0.000000       0.000000   24854.204888  -31559.189676    1119.590345 
 4640000     291.285526   -4664.096377   -5533.231468       0.000000       0.000000       0.000000   24819.255220  -31556.523780    1204.037092 
 4650000     305.229399   -4565.174722   -5475.915415       0.000000       0.000000       0.000000   25006.720462  -31556.738795    1074.102918 
 4660000     300.606442   -4644.270808   -5541.217561       0.000000       0.000000       0.000000   24944.593560  -31558.812386    1073.001265 
 4670000     295.828911   -4585.465755   -5468.157355       0.000000       0.000000       0.000000   24994.577500  -31558.709337    1095.974482 
 4680000     292.977724   -4643.092680   -5517.276937       0.000000       0.000000       0.000000   24964.412124  -31557.594526    1075.905465 
 4690000     309.522775   -4585.834396   -5509.385623       0.000000       0.000000       0.000000   24988.855331  -31559.229559    1060.988605 
 4700000     301.654815   -4626.447424   -5526.522304       0.000000       0.000000       0.000000   24912.198308  -31559.281218    1120.560606 
 4710000     289.973800   -4687.519327   -5552.740501       0.000000       0.000000       0.000000   24909.265426  -31561.161047    1099.155120 
 4720000     302.807110   -4698.384770   -5601.897858       0.000000       0.000000       0.000000   24908.537099  -31557.413323    1046.978366 
 4730000     299.816657   -4672.026204   -5566.616405       0.000000       0.000000       0.000000   24854.039754  -31560.609081    1139.952923 
 4740000     296.220809   -4588.624753   -5472.485694       0.000000       0.000000       0.000000   25004.260536  -31559.846137    1083.099907 
 4750000     303.587697   -4644.439804   -5550.281999       0.000000       0.000000       0.000000   24860.740230  -31559.302630    1148.280402 
 4760000     288.713548   -4665.804741   -5527.265586       0.000000       0.000000       0.000000   24975.970081  -31559.659936    1056.424268 
 4770000     301.615564   -4632.899029   -5532.856793       0.000000       0.000000       0.000000   24881.369939  -31557.696070    1143.469338 
 4780000     290.028437   -4698.287817   -5563.672016       0.000000       0.000000       0.000000   24858.598861  -31556.099089    1133.828212 
 4790000     306.694862   -4637.927211   -5553.040538       0.000000       0.000000       0.000000   24917.217064  -31561.429477    1091.171875 
 4800000     301.917998   -4664.007724   -5564.867887       0.000000       0.000000       0.000000   24942.683177  -31555.941645    1048.390581 
 4810000     293.415628   -4618.693042   -5494.183910       0.000000       0.000000       0.000000   24992.653438  -31561.507478    1074.670130 
 4820000     302.433804   -4636.330948   -5538.730170       0.000000       0.000000       0.000000   24899.825813  -31558.455478    1119.899495 
 4830000     296.114403   -4600.664299   -5484.207747       0.000000       0.000000       0.000000   24950.017010  -31559.618256    1125.393499 
 4840000     298.705085   -4660.002314   -5551.275817       0.000000       0.000000       0.000000   24913.261484  -31556.095625    1091.558324 
 4850000     289.739060   -4702.593641   -5567.114400       0.000000       0.000000       0.000000   24881.829394  -31562.190967    1113.247173 
 4860000     293.109421   -4645.337050   -5519.914262       0.000000       0.000000       0.000000   24910.504471  -31559.735608    1129.316875 
 4870000     293.826073   -4680.771306   -5557.486858       0.000000       0.000000       0.000000   24888.673557  -31556.290573    1110.130158 
 4880000     291.337095   -4702.637976   -5571.926937       0.000000       0.000000       0.000000   24863.289516  -31559.208690    1123.992238 
 4890000     294.198757   -4642.825604   -5520.653166       0.000000       0.000000       0.000000   24998.403794  -31557.725142    1038.668182 
 4900000     279.857977   -4686.126028   -5521.163702       0.000000       0.000000       0.000000   24927.292240  -31556.734635    1108.278692 
 4910000     296.097779   -4661.670460   -5545.164307       0.000000       0.000000       0.000000   24977.064618  -31558.667749    1036.438824 
 4920000     311.854612   -4565.746354   -5496.255295       0.000000       0.000000       0.000000   24932.845712  -31557.824014    1128.723007 
 4930000     296.678627   -4706.530044   -5591.757020       0.000000       0.000000       0.000000   24891.124278  -31559.116523    1076.235224 
 4940000     312.673670   -4671.710271   -5604.663108       0.000000       0.000000       0.000000   24857.170712  -31559.158653    1097.324832 
 4950000     289.017515   -4698.126045   -5560.493865       0.000000       0.000000       0.000000   24920.126670  -31554.440666    1073.820131 
 4960000     295.533447   -4659.331939   -5541.141937       0.000000       0.000000       0.000000   24854.955493  -31558.489355    1162.391925 
 4970000     295.498285   -4632.210461   -5513.915543       0.000000       0.000000       0.000000   24977.840693  -31554.905212    1063.148976 
 4980000     299.280469   -4625.989621   -5518.979948       0.000000       0.000000       0.000000   24976.233617  -31561.178434    1065.964869 
 4990000     303.911200   -4618.689903   -5525.497365       0.000000       0.000000       0.000000   24953.107467  -31560.590858    1081.986025 
 5000000     313.473188   -4643.691747   -5579.030180       0.000000       0.000000       0.000000   24918.239720  -31562.063651    1064.793751 
Loop time of 9782.78 on 8 procs for 5000000 steps with 1503 atoms

Performance: 44.159 ns/day, 0.543 hours/ns, 511.102 timesteps/s
99.2% CPU use with 8 MPI tasks x 1 OpenMP threads

MPI task timing breakdown:
Section |  min time  |  avg time  |  max time  |%varavg| %total
---------------------------------------------------------------
Pair    | 4883.7     | 4891.9     | 4895.7     |   4.8 | 50.01
Bond    | 1.2711     | 1.4418     | 1.7387     |  11.2 |  0.01
Kspace  | 2630.5     | 2636.4     | 2643.9     |   8.9 | 26.95
Neigh   | 352.52     | 352.73     | 353.02     |   1.0 |  3.61
Comm    | 447.59     | 459.61     | 466.77     |  26.1 |  4.70
Output  | 2.0028     | 2.4298     | 2.6675     |  12.4 |  0.02
Modify  | 1381.5     | 1393.8     | 1425.2     |  37.1 | 14.25
Other   |            | 44.5       |            |       |  0.45

Nlocal:    187.875 ave 198 max 176 min
Histogram: 2 0 0 1 0 2 0 0 1 2
Nghost:    4629.75 ave 4706 max 4559 min
Histogram: 2 0 0 2 1 0 1 0 0 2
Neighs:    68201.5 ave 73718 max 64417 min
Histogram: 2 0 1 2 0 1 0 1 0 1

Total # of neighbors = 545612
Ave neighs/atom = 363.015
Ave special neighs/atom = 2
Neighbor list builds = 217032
Dangerous builds = 0
Total wall time: 3:15:45
