LAMMPS (3 Mar 2020)
  using 1 OpenMP thread(s) per MPI task
Reading data file ...
  orthogonal box = (0 0 0) to (24 24 24)
  2 by 2 by 2 MPI processor grid
  reading atoms ...
  1503 atoms
  scanning bonds ...
  2 = max bonds/atom
  scanning angles ...
  1 = max angles/atom
  reading bonds ...
  1002 bonds
  reading angles ...
  501 angles
Finding 1-2 1-3 1-4 neighbors ...
  special bond factors lj:   0          0          0         
  special bond factors coul: 0          0          0         
  2 = max # of 1-2 neighbors
  1 = max # of 1-3 neighbors
  1 = max # of 1-4 neighbors
  2 = max # of special neighbors
  special bonds CPU = 0.00111898 secs
  read_data CPU = 0.0100552 secs
Setting atom values ...
  1 settings made for charge
Setting atom values ...
  2 settings made for charge
WARNING: Using 'neigh_modify every 1 delay 0 check yes' setting during minimization (src/min.cpp:190)
PPPM initialization ...
  using 12-bit tables for long-range coulomb (src/kspace.cpp:332)
  G vector (1/distance) = 0.315108
  grid = 24 24 24
  stencil order = 5
  estimated absolute RMS force accuracy = 0.00171043
  estimated relative force accuracy = 5.15091e-06
  using double precision MKL FFT
  3d grid and FFT values/proc = 6859 1728
Neighbor list info ...
  update every 1 steps, delay 0 steps, check yes
  max neighbors/atom: 2000, page size: 100000
  master list distance cutoff = 12
  ghost atom cutoff = 12
  binsize = 6, bins = 4 4 4
  3 neighbor lists, perpetual/occasional/extra = 3 0 0
  (1) pair lj/cut/coul/long, perpetual, skip from (3)
      attributes: half, newton on
      pair build: skip
      stencil: none
      bin: none
  (2) pair lj/cut/coul/long/soft, perpetual, skip from (3)
      attributes: half, newton on
      pair build: skip
      stencil: none
      bin: none
  (3) neighbor class addition, perpetual
      attributes: half, newton on
      pair build: half/bin/newton
      stencil: half/bin/3d/newton
      bin: standard
Setting up cg style minimization ...
  Unit style    : real
  Current step  : 0
Per MPI rank memory allocation (min/avg/max) = 10.15 | 10.15 | 10.16 Mbytes
Step Temp E_pair E_mol TotEng Press 
       0            0   -233.47587   0.56510211   -232.91077    17936.924 
      49            0   -6413.4024    331.50838    -6081.894   -4889.2089 
Loop time of 0.181955 on 8 procs for 49 steps with 1503 atoms

98.7% CPU use with 8 MPI tasks x 1 OpenMP threads

Minimization stats:
  Stopping criterion = energy tolerance
  Energy initial, next-to-last, final = 
        -232.910770222     -6077.60223717     -6081.89401852
  Force two-norm initial, final = 680.79 93.3505
  Force max component initial, final = 40.0816 7.6854
  Final line search alpha, max atom move = 0.00865166 0.0664914
  Iterations, force evaluations = 49 83

MPI task timing breakdown:
Section |  min time  |  avg time  |  max time  |%varavg| %total
---------------------------------------------------------------
Pair    | 0.12228    | 0.12546    | 0.12881    |   0.6 | 68.95
Bond    | 0.00043882 | 0.0004616  | 0.0004895  |   0.0 |  0.25
Kspace  | 0.03935    | 0.04279    | 0.045974   |   1.1 | 23.52
Neigh   | 0.0028962  | 0.0029013  | 0.0029056  |   0.0 |  1.59
Comm    | 0.0081879  | 0.0083602  | 0.0085044  |   0.1 |  4.59
Output  | 0          | 0          | 0          |   0.0 |  0.00
Modify  | 0          | 0          | 0          |   0.0 |  0.00
Other   |            | 0.001977   |            |       |  1.09

Nlocal:    187.875 ave 192 max 186 min
Histogram: 4 0 0 0 0 3 0 0 0 1
Nghost:    4884.75 ave 4908 max 4872 min
Histogram: 3 1 0 1 0 0 2 0 0 1
Neighs:    72757.2 ave 75303 max 70891 min
Histogram: 1 0 1 3 1 0 1 0 0 1

Total # of neighbors = 582058
Ave neighs/atom = 387.264
Ave special neighs/atom = 2
Neighbor list builds = 2
Dangerous builds = 0
Finding SHAKE clusters ...
  0 = # of size 2 clusters
  0 = # of size 3 clusters
  0 = # of size 4 clusters
  501 = # of frozen angles
  find clusters CPU = 0.000245776 secs
PPPM initialization ...
  using 12-bit tables for long-range coulomb (src/kspace.cpp:332)
  G vector (1/distance) = 0.315108
  grid = 24 24 24
  stencil order = 5
  estimated absolute RMS force accuracy = 0.00171043
  estimated relative force accuracy = 5.15091e-06
  using double precision MKL FFT
  3d grid and FFT values/proc = 6859 1728
Neighbor list info ...
  update every 1 steps, delay 10 steps, check yes
  max neighbors/atom: 2000, page size: 100000
  master list distance cutoff = 12
  ghost atom cutoff = 12
  binsize = 6, bins = 4 4 4
  3 neighbor lists, perpetual/occasional/extra = 3 0 0
  (1) pair lj/cut/coul/long, perpetual, skip from (3)
      attributes: half, newton on
      pair build: skip
      stencil: none
      bin: none
  (2) pair lj/cut/coul/long/soft, perpetual, skip from (3)
      attributes: half, newton on
      pair build: skip
      stencil: none
      bin: none
  (3) neighbor class addition, perpetual
      attributes: half, newton on
      pair build: half/bin/newton
      stencil: half/bin/3d/newton
      bin: standard
Setting up Verlet run ...
  Unit style    : real
  Current step  : 49
  Time step     : 1
Per MPI rank memory allocation (min/avg/max) = 9.904 | 9.905 | 9.906 Mbytes
Step Temp TotEng PotEng E_bond E_angle E_dihed E_coul E_long E_vdwl 
      49     300.000000   -5518.265145   -6413.402403       0.000000       0.000000       0.000000   24269.618459  -31787.000672    1103.979810 
   10000     290.010738   -4677.641608   -5542.972996       0.000000       0.000000       0.000000   25169.843914  -31778.123881    1065.306971 
   20000     292.025476   -4656.671442   -5528.014389       0.000000       0.000000       0.000000   25142.735633  -31777.986338    1107.236316 
   30000     300.765289   -4622.900622   -5520.321343       0.000000       0.000000       0.000000   25098.152280  -31779.345897    1160.872273 
   40000     297.482990   -4603.689909   -5491.316936       0.000000       0.000000       0.000000   25314.577632  -31780.834443     974.939875 
   50000     302.848060   -4623.421858   -5527.057132       0.000000       0.000000       0.000000   25163.005800  -31780.619107    1090.556174 
   60000     308.144341   -4608.872094   -5528.310363       0.000000       0.000000       0.000000   25126.290789  -31778.791149    1124.189997 
   70000     301.539150   -4580.525131   -5480.254890       0.000000       0.000000       0.000000   25200.477408  -31776.486216    1095.753917 
   80000     291.355132   -4598.326537   -5467.669316       0.000000       0.000000       0.000000   25257.383604  -31779.173817    1054.120898 
   90000     303.582377   -4639.109021   -5544.935343       0.000000       0.000000       0.000000   25232.044117  -31778.070650    1001.091190 
  100000     297.676939   -4616.805565   -5505.011294       0.000000       0.000000       0.000000   25209.178718  -31778.379701    1064.189689 
  110000     297.047321   -4656.361444   -5542.688526       0.000000       0.000000       0.000000   25079.910564  -31782.122502    1159.523413 
  120000     298.270794   -4646.615356   -5536.593026       0.000000       0.000000       0.000000   25125.001330  -31778.052261    1116.457906 
  130000     321.086472   -4528.984906   -5487.039787       0.000000       0.000000       0.000000   25216.721889  -31780.978101    1077.216425 
  140000     295.394086   -4606.591480   -5487.985655       0.000000       0.000000       0.000000   25225.365052  -31773.670977    1060.320270 
  150000     282.504957   -4697.336061   -5540.271770       0.000000       0.000000       0.000000   25167.792164  -31773.404251    1065.340317 
  160000     300.832878   -4574.922321   -5472.544713       0.000000       0.000000       0.000000   25205.731986  -31779.683779    1101.407079 
  170000     304.768156   -4644.356846   -5553.721283       0.000000       0.000000       0.000000   25108.858710  -31780.152403    1117.572410 
  180000     302.027345   -4652.435568   -5553.622000       0.000000       0.000000       0.000000   25133.822524  -31782.072920    1094.628396 
  190000     326.285188   -4599.533232   -5573.099994       0.000000       0.000000       0.000000   25083.009283  -31781.230788    1125.121510 
  200000     299.964701   -4650.691565   -5545.723497       0.000000       0.000000       0.000000   25175.288177  -31780.674939    1059.663265 
  210000     285.816809   -4678.210766   -5531.028349       0.000000       0.000000       0.000000   25132.596549  -31780.062938    1116.438041 
  220000     291.684533   -4714.165879   -5584.491523       0.000000       0.000000       0.000000   25051.346243  -31780.735315    1144.897548 
  230000     303.657309   -4638.185489   -5544.235390       0.000000       0.000000       0.000000   25117.999572  -31779.817000    1117.582037 
  240000     307.954142   -4663.974809   -5582.845565       0.000000       0.000000       0.000000   25132.021095  -31782.304404    1067.437745 
  250000     306.358150   -4621.246852   -5535.355499       0.000000       0.000000       0.000000   25170.746726  -31775.827639    1069.725413 
  260000     305.184024   -4648.521866   -5559.127166       0.000000       0.000000       0.000000   25121.243135  -31777.176068    1096.805767 
  270000     291.216324   -4635.644143   -5504.572748       0.000000       0.000000       0.000000   25253.500124  -31779.048930    1020.976058 
  280000     296.102498   -4684.134236   -5567.642164       0.000000       0.000000       0.000000   25079.773505  -31781.400980    1133.985311 
  290000     304.779679   -4602.883060   -5512.281879       0.000000       0.000000       0.000000   25125.109067  -31775.991772    1138.600826 
  300000     310.277311   -4615.085886   -5540.888491       0.000000       0.000000       0.000000   25094.806298  -31781.481466    1145.786677 
  310000     299.772444   -4692.642781   -5587.101060       0.000000       0.000000       0.000000   25110.399453  -31779.404647    1081.904134 
  320000     314.724079   -4645.493002   -5584.563833       0.000000       0.000000       0.000000   25071.325212  -31781.593170    1125.704125 
  330000     296.713187   -4622.209981   -5507.540076       0.000000       0.000000       0.000000   25109.958227  -31773.673958    1156.175655 
  340000     296.101078   -4552.792399   -5436.296088       0.000000       0.000000       0.000000   25301.363539  -31779.804678    1042.145052 
  350000     303.671163   -4657.590236   -5563.681478       0.000000       0.000000       0.000000   25099.510181  -31781.148540    1117.956881 
  360000     299.166291   -4578.612825   -5471.262469       0.000000       0.000000       0.000000   25203.590317  -31780.438994    1105.586208 
  370000     296.283959   -4635.317777   -5519.367145       0.000000       0.000000       0.000000   25163.626606  -31782.326397    1099.332646 
  380000     291.155718   -4717.007309   -5585.755079       0.000000       0.000000       0.000000   25063.376526  -31777.601761    1128.470155 
  390000     308.396874   -4631.665610   -5551.857385       0.000000       0.000000       0.000000   25122.215547  -31783.257338    1109.184407 
  400000     303.789956   -4581.857095   -5488.302789       0.000000       0.000000       0.000000   25137.058575  -31781.245101    1155.883737 
  410000     302.856612   -4606.126778   -5509.787568       0.000000       0.000000       0.000000   25265.137600  -31783.388788    1008.463619 
  420000     299.553058   -4596.548509   -5490.352186       0.000000       0.000000       0.000000   25232.506649  -31780.054563    1057.195728 
  430000     310.372535   -4618.071416   -5544.158148       0.000000       0.000000       0.000000   25198.921008  -31777.726883    1034.647727 
  440000     305.736500   -4574.728621   -5486.982396       0.000000       0.000000       0.000000   25139.632878  -31778.610877    1151.995603 
  450000     319.677182   -4609.027001   -5562.876854       0.000000       0.000000       0.000000   25058.942762  -31778.492560    1156.672944 
  460000     302.677848   -4605.778335   -5508.905731       0.000000       0.000000       0.000000   25165.560934  -31775.910596    1101.443931 
  470000     301.606965   -4708.672471   -5608.604576       0.000000       0.000000       0.000000   24998.016404  -31780.882384    1174.261404 
  480000     294.932167   -4632.884325   -5512.900230       0.000000       0.000000       0.000000   25138.169076  -31780.626376    1129.557071 
  490000     298.014740   -4657.379005   -5546.592662       0.000000       0.000000       0.000000   25161.647382  -31777.588244    1069.348200 
  500000     301.578877   -4590.836272   -5490.684567       0.000000       0.000000       0.000000   25184.912115  -31779.110817    1103.514134 
  510000     301.158932   -4603.587824   -5502.183094       0.000000       0.000000       0.000000   25181.360497  -31779.102905    1095.559314 
  520000     293.551496   -4594.210478   -5470.106749       0.000000       0.000000       0.000000   25259.404942  -31778.581349    1049.069658 
  530000     292.958034   -4635.086571   -5509.212076       0.000000       0.000000       0.000000   25209.309308  -31779.298713    1060.777329 
  540000     309.181664   -4589.141982   -5511.675406       0.000000       0.000000       0.000000   25207.944520  -31777.436273    1057.816347 
  550000     305.531504   -4559.787838   -5471.429947       0.000000       0.000000       0.000000   25227.041572  -31773.154481    1074.682963 
  560000     300.123415   -4579.699816   -5475.205318       0.000000       0.000000       0.000000   25174.027701  -31779.013768    1129.780749 
  570000     278.103791   -4675.725373   -5505.528922       0.000000       0.000000       0.000000   25209.866274  -31779.868543    1064.473348 
  580000     305.627834   -4630.969357   -5542.898894       0.000000       0.000000       0.000000   25132.556450  -31778.621612    1103.166269 
  590000     296.667445   -4620.703309   -5505.896922       0.000000       0.000000       0.000000   25184.012105  -31777.462055    1087.553028 
  600000     297.445144   -4611.751317   -5499.265418       0.000000       0.000000       0.000000   25285.296591  -31778.721343     994.159334 
  610000     307.657595   -4504.364656   -5422.350577       0.000000       0.000000       0.000000   25266.372045  -31778.627011    1089.904390 
  620000     298.566304   -4660.504715   -5551.364123       0.000000       0.000000       0.000000   25142.007358  -31784.381948    1091.010467 
  630000     305.143736   -4588.510792   -5498.995882       0.000000       0.000000       0.000000   25193.373457  -31776.861941    1084.492601 
  640000     299.110789   -4646.517859   -5539.001895       0.000000       0.000000       0.000000   25154.927121  -31775.358989    1081.429973 
  650000     307.978787   -4632.071652   -5551.015940       0.000000       0.000000       0.000000   25126.808767  -31780.195471    1102.370764 
  660000     289.146613   -4639.968736   -5502.721758       0.000000       0.000000       0.000000   25223.077221  -31778.985166    1053.186188 
  670000     303.653941   -4615.934625   -5521.974480       0.000000       0.000000       0.000000   25167.047103  -31780.751250    1091.729667 
  680000     298.039659   -4643.881977   -5533.169987       0.000000       0.000000       0.000000   25162.308795  -31776.472577    1080.993796 
  690000     298.896044   -4582.396623   -5474.239908       0.000000       0.000000       0.000000   25264.727431  -31778.946479    1039.979140 
  700000     295.563394   -4631.718279   -5513.617632       0.000000       0.000000       0.000000   25171.353247  -31781.145416    1096.174537 
  710000     290.241562   -4699.256470   -5565.276589       0.000000       0.000000       0.000000   25054.504766  -31777.919944    1158.138588 
  720000     307.698515   -4566.863930   -5484.971948       0.000000       0.000000       0.000000   25203.674002  -31780.135481    1091.489532 
  730000     300.756626   -4630.544567   -5527.939438       0.000000       0.000000       0.000000   25209.493457  -31783.150272    1045.717378 
  740000     299.187490   -4626.016558   -5518.729457       0.000000       0.000000       0.000000   25151.218471  -31777.967655    1108.019727 
  750000     305.230273   -4648.004257   -5558.747557       0.000000       0.000000       0.000000   25183.631188  -31780.618254    1038.239508 
  760000     297.435855   -4647.143808   -5534.630195       0.000000       0.000000       0.000000   25222.565955  -31779.660108    1022.463958 
  770000     299.279299   -4664.632963   -5557.619801       0.000000       0.000000       0.000000   25002.568541  -31777.889590    1217.701248 
  780000     300.562499   -4601.390463   -5498.206099       0.000000       0.000000       0.000000   25128.856576  -31778.162289    1151.099613 
  790000     299.908821   -4578.213136   -5473.078335       0.000000       0.000000       0.000000   25201.318931  -31776.759695    1102.362429 
  800000     316.034127   -4581.958017   -5524.937758       0.000000       0.000000       0.000000   25105.525097  -31779.507166    1149.044310 
  810000     295.740130   -4613.329549   -5495.756246       0.000000       0.000000       0.000000   25179.419372  -31781.691274    1106.515657 
  820000     303.610470   -4597.755959   -5503.666105       0.000000       0.000000       0.000000   25159.167084  -31778.882640    1116.049451 
  830000     299.650970   -4631.919439   -5526.015265       0.000000       0.000000       0.000000   25111.381372  -31780.256433    1142.859795 
  840000     289.569424   -4676.240916   -5540.255515       0.000000       0.000000       0.000000   25169.627182  -31779.035933    1069.153236 
  850000     309.688129   -4612.644946   -5536.689555       0.000000       0.000000       0.000000   25185.482707  -31780.362597    1058.190334 
  860000     296.573189   -4644.032613   -5528.944983       0.000000       0.000000       0.000000   25163.244570  -31778.776176    1086.586623 
  870000     299.271309   -4583.209598   -5476.172595       0.000000       0.000000       0.000000   25258.569738  -31780.643494    1045.901160 
  880000     300.028064   -4681.098368   -5576.319363       0.000000       0.000000       0.000000   25047.127792  -31781.599413    1158.152258 
  890000     307.882577   -4597.732883   -5516.390102       0.000000       0.000000       0.000000   25198.711778  -31781.244888    1066.143008 
  900000     288.512703   -4681.218799   -5542.080365       0.000000       0.000000       0.000000   25176.192305  -31780.312905    1062.040234 
  910000     301.473306   -4669.377833   -5568.911127       0.000000       0.000000       0.000000   25103.175182  -31778.759403    1106.673095 
  920000     306.057647   -4610.262766   -5523.474775       0.000000       0.000000       0.000000   25166.975044  -31778.170833    1087.721014 
  930000     288.735046   -4704.977973   -5566.502965       0.000000       0.000000       0.000000   25137.387001  -31778.423410    1074.533445 
  940000     287.546223   -4668.381304   -5526.359096       0.000000       0.000000       0.000000   25180.357394  -31775.680203    1068.963713 
  950000     291.872839   -4672.305776   -5543.193286       0.000000       0.000000       0.000000   25131.163920  -31779.646550    1105.289344 
  960000     301.094843   -4608.043414   -5506.447453       0.000000       0.000000       0.000000   25188.429640  -31777.116330    1082.239237 
  970000     282.194577   -4684.715612   -5526.725212       0.000000       0.000000       0.000000   25107.480743  -31776.240864    1142.034908 
  980000     291.328304   -4668.365201   -5537.627932       0.000000       0.000000       0.000000   25092.470604  -31779.406208    1149.307673 
  990000     300.370149   -4679.770728   -5576.012433       0.000000       0.000000       0.000000   25122.250138  -31780.835521    1082.572950 
 1000000     298.944137   -4680.064081   -5572.050864       0.000000       0.000000       0.000000   25068.130563  -31781.438396    1141.256969 
 1000049     296.465321   -4679.964185   -5564.554700       0.000000       0.000000       0.000000   25135.746725  -31779.421730    1079.120305 
Loop time of 1978.73 on 8 procs for 1000000 steps with 1503 atoms

Performance: 43.664 ns/day, 0.550 hours/ns, 505.375 timesteps/s
99.2% CPU use with 8 MPI tasks x 1 OpenMP threads

MPI task timing breakdown:
Section |  min time  |  avg time  |  max time  |%varavg| %total
---------------------------------------------------------------
Pair    | 978.21     | 981.7      | 986.96     |   9.9 | 49.61
Bond    | 0.31214    | 0.39851    | 0.51805    |  10.6 |  0.02
Kspace  | 528.84     | 534.58     | 538.69     |  14.9 | 27.02
Neigh   | 70.754     | 70.817     | 70.878     |   0.5 |  3.58
Comm    | 92.022     | 96.953     | 100.74     |  25.6 |  4.90
Output  | 0.0041519  | 0.0047898  | 0.0091404  |   2.4 |  0.00
Modify  | 269.93     | 281.87     | 293.03     |  37.2 | 14.24
Other   |            | 12.41      |            |       |  0.63

Nlocal:    187.875 ave 199 max 171 min
Histogram: 1 0 0 1 0 1 2 1 1 1
Nghost:    4570.75 ave 4626 max 4503 min
Histogram: 1 0 1 0 2 1 1 0 0 2
Neighs:    67196.9 ave 73955 max 61225 min
Histogram: 1 0 1 0 4 0 1 0 0 1

Total # of neighbors = 537575
Ave neighs/atom = 357.668
Ave special neighs/atom = 2
Neighbor list builds = 43499
Dangerous builds = 0
PPPM initialization ...
  using 12-bit tables for long-range coulomb (src/kspace.cpp:332)
  G vector (1/distance) = 0.312957
  grid = 24 24 24
  stencil order = 5
  estimated absolute RMS force accuracy = 0.00187122
  estimated relative force accuracy = 5.63513e-06
  using double precision MKL FFT
  3d grid and FFT values/proc = 6859 1728
Neighbor list info ...
  update every 1 steps, delay 10 steps, check yes
  max neighbors/atom: 2000, page size: 100000
  master list distance cutoff = 12
  ghost atom cutoff = 12
  binsize = 6, bins = 5 5 5
  3 neighbor lists, perpetual/occasional/extra = 3 0 0
  (1) pair lj/cut/coul/long, perpetual, skip from (3)
      attributes: half, newton on
      pair build: skip
      stencil: none
      bin: none
  (2) pair lj/cut/coul/long/soft, perpetual, skip from (3)
      attributes: half, newton on
      pair build: skip
      stencil: none
      bin: none
  (3) neighbor class addition, perpetual
      attributes: half, newton on
      pair build: half/bin/newton
      stencil: half/bin/3d/newton
      bin: standard
Setting up Verlet run ...
  Unit style    : real
  Current step  : 0
  Time step     : 1
Per MPI rank memory allocation (min/avg/max) = 10.91 | 10.91 | 10.91 Mbytes
Step Temp TotEng PotEng E_bond E_angle E_dihed E_coul E_long E_vdwl 
       0     296.465321   -4679.965753   -5564.556267       0.000000       0.000000       0.000000   24919.314405  -31562.990977    1079.120305 
   10000     298.266046   -4624.970133   -5514.933635       0.000000       0.000000       0.000000   24954.987572  -31564.581600    1094.660393 
   20000     319.842338   -4551.797403   -5506.140048       0.000000       0.000000       0.000000   24927.943686  -31566.688202    1132.604467 
   30000     309.661635   -4533.721341   -5457.686897       0.000000       0.000000       0.000000   25082.957070  -31563.253785    1022.609818 
   40000     292.947523   -4610.850365   -5484.944505       0.000000       0.000000       0.000000   25036.402820  -31559.666616    1038.319291 
   50000     299.455867   -4548.642725   -5442.156405       0.000000       0.000000       0.000000   25000.997527  -31563.739782    1120.585849 
   60000     313.702582   -4643.255563   -5579.278460       0.000000       0.000000       0.000000   24895.835727  -31567.669346    1092.555159 
   70000     304.287744   -4603.919863   -5511.850853       0.000000       0.000000       0.000000   25034.600177  -31563.543838    1017.092809 
   80000     301.312894   -4620.119934   -5519.174594       0.000000       0.000000       0.000000   24975.567873  -31563.098128    1068.355661 
   90000     289.794242   -4627.389195   -5492.074605       0.000000       0.000000       0.000000   25053.778210  -31560.427957    1014.575142 
  100000     302.768303   -4563.997293   -5467.394587       0.000000       0.000000       0.000000   25038.300806  -31564.695788    1059.000395 
  110000     299.511479   -4649.167617   -5542.847232       0.000000       0.000000       0.000000   24939.487678  -31567.884976    1085.550066 
  120000     301.692327   -4613.729023   -5513.915833       0.000000       0.000000       0.000000   24921.084652  -31564.103167    1129.102683 
  130000     303.855099   -4588.015766   -5494.655833       0.000000       0.000000       0.000000   24993.251127  -31564.751096    1076.844136 
  140000     292.786872   -4699.391556   -5573.006350       0.000000       0.000000       0.000000   24827.353691  -31561.986978    1161.626937 
  150000     292.608880   -4641.473486   -5514.557187       0.000000       0.000000       0.000000   24920.167144  -31565.612315    1130.887983 
  160000     298.536284   -4637.146395   -5527.916231       0.000000       0.000000       0.000000   24904.993821  -31562.860732    1129.950680 
  170000     301.719892   -4617.506874   -5517.775931       0.000000       0.000000       0.000000   24972.814429  -31558.549627    1067.959267 
  180000     310.691953   -4626.512373   -5553.552181       0.000000       0.000000       0.000000   24922.282149  -31561.653436    1085.819106 
  190000     295.823224   -4615.612821   -5498.287453       0.000000       0.000000       0.000000   24949.427089  -31564.717586    1117.003044 
  200000     308.306607   -4592.038171   -5511.960608       0.000000       0.000000       0.000000   24982.069289  -31567.038372    1073.008476 
  210000     307.979671   -4635.538012   -5554.484938       0.000000       0.000000       0.000000   24832.615131  -31563.651968    1176.551899 
  220000     316.228609   -4581.995854   -5525.555887       0.000000       0.000000       0.000000   24970.073309  -31566.001928    1070.372732 
  230000     298.205768   -4668.709767   -5558.493413       0.000000       0.000000       0.000000   24845.663449  -31562.938310    1158.781448 
  240000     301.166240   -4623.775577   -5522.392652       0.000000       0.000000       0.000000   24923.856362  -31563.740492    1117.491478 
  250000     293.129442   -4596.423484   -5471.060433       0.000000       0.000000       0.000000   25054.814948  -31561.189046    1035.313664 
  260000     308.709667   -4549.077373   -5470.202457       0.000000       0.000000       0.000000   24996.556867  -31556.026308    1089.266984 
  270000     303.190163   -4630.575523   -5535.231562       0.000000       0.000000       0.000000   24887.625776  -31566.844201    1143.986864 
  280000     309.099341   -4564.338737   -5486.626526       0.000000       0.000000       0.000000   25006.550764  -31562.160768    1068.983478 
  290000     290.772057   -4629.177147   -5496.780155       0.000000       0.000000       0.000000   25011.340507  -31565.072610    1056.951948 
  300000     280.354970   -4644.437767   -5480.958364       0.000000       0.000000       0.000000   24985.099625  -31563.698784    1097.640795 
  310000     310.585631   -4602.491516   -5529.214082       0.000000       0.000000       0.000000   24994.505527  -31562.569830    1038.850221 
  320000     305.357451   -4590.029833   -5501.152605       0.000000       0.000000       0.000000   25016.988546  -31564.091272    1045.950121 
  330000     311.187079   -4565.292649   -5493.809809       0.000000       0.000000       0.000000   24961.367110  -31561.978664    1106.801745 
  340000     305.967567   -4597.669266   -5510.612495       0.000000       0.000000       0.000000   25012.213111  -31563.957306    1041.131700 
  350000     298.883941   -4625.233086   -5517.040257       0.000000       0.000000       0.000000   24993.098232  -31563.557462    1053.418973 
  360000     307.070916   -4649.059971   -5565.295363       0.000000       0.000000       0.000000   24890.060953  -31564.594806    1109.238491 
  370000     295.912761   -4628.585879   -5511.527671       0.000000       0.000000       0.000000   24964.877559  -31562.115727    1085.710497 
  380000     298.242194   -4671.735874   -5561.628206       0.000000       0.000000       0.000000   24916.124151  -31563.904136    1086.151779 
  390000     299.305674   -4618.115809   -5511.181343       0.000000       0.000000       0.000000   24993.414960  -31559.811787    1055.215485 
  400000     303.477758   -4581.304567   -5486.818728       0.000000       0.000000       0.000000   24978.622077  -31558.230523    1092.789718 
  410000     293.829756   -4673.322654   -5550.049194       0.000000       0.000000       0.000000   24970.153913  -31563.655806    1043.452699 
  420000     307.317825   -4611.371938   -5528.344056       0.000000       0.000000       0.000000   24873.097101  -31564.207153    1162.765996 
  430000     290.896961   -4673.748943   -5541.724636       0.000000       0.000000       0.000000   24883.113423  -31562.798883    1137.960824 
  440000     293.606025   -4622.804262   -5498.863237       0.000000       0.000000       0.000000   25021.661293  -31560.845412    1040.320882 
  450000     300.852558   -4688.050312   -5585.731424       0.000000       0.000000       0.000000   24831.365145  -31562.660490    1145.563922 
  460000     301.265582   -4574.712145   -5473.625636       0.000000       0.000000       0.000000   25066.007706  -31560.672412    1021.039069 
  470000     310.169242   -4576.328444   -5501.808595       0.000000       0.000000       0.000000   25032.732387  -31563.475968    1028.934987 
  480000     301.427187   -4600.390045   -5499.785730       0.000000       0.000000       0.000000   24959.215251  -31566.771498    1107.770517 
  490000     308.055270   -4626.935911   -5546.108409       0.000000       0.000000       0.000000   24887.623817  -31560.983968    1127.251742 
  500000     298.924833   -4655.369088   -5547.298274       0.000000       0.000000       0.000000   24895.584215  -31563.237783    1120.355293 
  510000     309.393380   -4610.155777   -5533.320917       0.000000       0.000000       0.000000   24923.290569  -31564.183494    1107.572008 
  520000     305.946819   -4680.685507   -5593.566830       0.000000       0.000000       0.000000   24804.709183  -31564.541998    1166.265985 
  530000     295.870839   -4684.984234   -5567.800938       0.000000       0.000000       0.000000   24863.002674  -31562.468485    1131.664872 
  540000     297.704175   -4670.004466   -5558.291464       0.000000       0.000000       0.000000   24876.979579  -31563.732462    1128.461419 
  550000     298.035760   -4653.506834   -5542.783212       0.000000       0.000000       0.000000   24935.661434  -31564.643949    1086.199303 
  560000     310.980120   -4612.537873   -5540.437514       0.000000       0.000000       0.000000   24927.795997  -31564.987721    1096.754210 
  570000     289.946681   -4673.717073   -5538.857328       0.000000       0.000000       0.000000   24932.436469  -31563.284863    1091.991066 
  580000     300.524044   -4641.990483   -5538.691378       0.000000       0.000000       0.000000   24917.746279  -31566.072255    1109.634598 
  590000     295.933572   -4680.237829   -5563.241715       0.000000       0.000000       0.000000   24900.698945  -31564.524018    1100.583359 
  600000     308.936107   -4633.875716   -5555.676447       0.000000       0.000000       0.000000   24838.828022  -31563.913428    1169.408960 
  610000     303.719305   -4562.672565   -5468.907453       0.000000       0.000000       0.000000   25047.998204  -31563.818556    1046.912899 
  620000     293.793223   -4626.842869   -5503.460404       0.000000       0.000000       0.000000   24941.141239  -31561.672993    1117.071350 
  630000     299.711204   -4636.369309   -5530.644860       0.000000       0.000000       0.000000   24928.644074  -31562.282556    1102.993622 
  640000     303.520065   -4650.117320   -5555.757717       0.000000       0.000000       0.000000   24897.239341  -31563.372307    1110.375249 
  650000     304.399067   -4543.575621   -5451.838774       0.000000       0.000000       0.000000   25054.490858  -31562.643014    1056.313383 
  660000     292.062234   -4675.435068   -5546.887693       0.000000       0.000000       0.000000   24910.085416  -31562.017120    1105.044011 
  670000     291.920870   -4660.841146   -5531.871971       0.000000       0.000000       0.000000   24941.104281  -31564.710520    1091.734268 
  680000     295.919391   -4644.685490   -5527.647064       0.000000       0.000000       0.000000   24944.238563  -31562.487614    1090.601987 
  690000     301.880954   -4632.290176   -5533.039808       0.000000       0.000000       0.000000   24977.551053  -31563.229125    1052.638265 
  700000     316.202365   -4599.636303   -5543.118031       0.000000       0.000000       0.000000   24885.344095  -31561.966212    1133.504087 
  710000     304.633939   -4597.329812   -5506.293774       0.000000       0.000000       0.000000   24998.586399  -31561.734124    1056.853951 
  720000     305.587513   -4606.823596   -5518.632825       0.000000       0.000000       0.000000   24942.051004  -31560.012112    1099.328283 
  730000     292.861254   -4642.175430   -5516.012162       0.000000       0.000000       0.000000   24956.653396  -31560.764731    1088.099173 
  740000     293.052961   -4638.378613   -5512.787360       0.000000       0.000000       0.000000   24954.739845  -31564.954467    1097.427262 
  750000     302.570605   -4586.392628   -5489.200033       0.000000       0.000000       0.000000   25014.922329  -31564.240584    1060.118222 
  760000     302.368350   -4618.470643   -5520.674563       0.000000       0.000000       0.000000   24962.436196  -31564.081501    1080.970741 
  770000     294.417936   -4661.271054   -5539.752600       0.000000       0.000000       0.000000   24850.892014  -31562.085429    1171.440814 
  780000     304.746580   -4592.090799   -5501.390858       0.000000       0.000000       0.000000   24965.571713  -31559.189153    1092.226583 
  790000     298.687919   -4614.999628   -5506.221910       0.000000       0.000000       0.000000   25003.119582  -31564.440080    1055.098588 
  800000     283.212585   -4699.417191   -5544.464314       0.000000       0.000000       0.000000   24935.322011  -31564.903277    1085.116953 
  810000     297.526568   -4631.389044   -5519.146097       0.000000       0.000000       0.000000   24964.138986  -31563.881131    1080.596048 
  820000     296.538290   -4610.354788   -5495.163028       0.000000       0.000000       0.000000   24984.825144  -31566.187902    1086.199730 
  830000     310.857956   -4575.427244   -5502.962371       0.000000       0.000000       0.000000   24942.456059  -31564.455251    1119.036821 
  840000     297.938807   -4615.215663   -5504.202753       0.000000       0.000000       0.000000   24969.425810  -31561.245369    1087.616807 
  850000     294.826748   -4629.842604   -5509.543961       0.000000       0.000000       0.000000   24943.261752  -31567.450051    1114.644339 
  860000     293.366265   -4683.522862   -5558.866443       0.000000       0.000000       0.000000   24869.922986  -31564.575863    1135.786435 
  870000     300.048794   -4604.272591   -5499.555441       0.000000       0.000000       0.000000   24952.860848  -31564.104144    1111.687855 
  880000     295.893635   -4708.109751   -5590.994475       0.000000       0.000000       0.000000   24864.035467  -31564.516380    1109.486439 
  890000     296.711028   -4606.178027   -5491.501679       0.000000       0.000000       0.000000   24934.703823  -31558.396999    1132.191496 
  900000     296.938436   -4567.554343   -5453.556535       0.000000       0.000000       0.000000   25099.155587  -31561.532476    1008.820354 
  910000     296.893752   -4667.532806   -5553.401668       0.000000       0.000000       0.000000   24871.602008  -31558.470965    1133.467290 
  920000     310.322767   -4603.441446   -5529.379683       0.000000       0.000000       0.000000   24899.595019  -31560.185675    1131.210973 
  930000     300.549680   -4595.921173   -5492.698561       0.000000       0.000000       0.000000   25051.873412  -31562.710774    1018.138801 
  940000     298.185974   -4667.467009   -5557.191593       0.000000       0.000000       0.000000   24977.413695  -31564.837161    1030.231873 
  950000     293.163732   -4635.611638   -5510.350902       0.000000       0.000000       0.000000   24994.781127  -31562.568995    1057.436965 
  960000     298.101869   -4630.779773   -5520.253405       0.000000       0.000000       0.000000   24936.771187  -31564.867350    1107.842758 
  970000     307.101245   -4588.426424   -5504.752311       0.000000       0.000000       0.000000   24980.578122  -31561.812307    1076.481874 
  980000     304.660139   -4615.237978   -5524.280116       0.000000       0.000000       0.000000   25006.088530  -31567.212480    1036.843834 
  990000     300.558598   -4567.148855   -5463.952851       0.000000       0.000000       0.000000   25057.788632  -31563.173287    1041.431804 
 1000000     291.599152   -4668.679925   -5538.750810       0.000000       0.000000       0.000000   24927.876752  -31560.615616    1093.988053 
 1010000     313.382698   -4521.948088   -5457.016517       0.000000       0.000000       0.000000   25011.382406  -31562.483819    1094.084896 
 1020000     300.855597   -4628.454780   -5526.144959       0.000000       0.000000       0.000000   24990.768207  -31563.703583    1046.790417 
 1030000     301.641775   -4630.243780   -5530.279750       0.000000       0.000000       0.000000   24942.689005  -31560.444894    1087.476139 
 1040000     296.844656   -4596.717576   -5482.439947       0.000000       0.000000       0.000000   24993.512323  -31562.954220    1087.001949 
 1050000     305.830627   -4634.098966   -5546.633595       0.000000       0.000000       0.000000   24907.222666  -31565.377507    1111.521246 
 1060000     308.325451   -4620.553787   -5540.532448       0.000000       0.000000       0.000000   24954.145935  -31565.238915    1070.560531 
 1070000     308.486972   -4578.711595   -5499.172203       0.000000       0.000000       0.000000   25010.379252  -31562.025234    1052.473779 
 1080000     297.918544   -4670.430468   -5559.357097       0.000000       0.000000       0.000000   24919.423148  -31568.026408    1089.246164 
 1090000     310.813270   -4582.222797   -5509.624591       0.000000       0.000000       0.000000   25001.478958  -31565.097385    1053.993835 
 1100000     294.148208   -4590.545109   -5468.221844       0.000000       0.000000       0.000000   25038.192673  -31564.228217    1057.813700 
 1110000     307.365686   -4633.686102   -5550.801028       0.000000       0.000000       0.000000   24839.388038  -31564.906500    1174.717434 
 1120000     297.679095   -4673.507274   -5561.719436       0.000000       0.000000       0.000000   24940.586768  -31563.255121    1060.948917 
 1130000     309.996658   -4572.204910   -5497.170105       0.000000       0.000000       0.000000   24953.982608  -31564.707939    1113.555225 
 1140000     297.776828   -4584.482950   -5472.986727       0.000000       0.000000       0.000000   25026.859552  -31558.305431    1058.459151 
 1150000     304.174724   -4668.292424   -5575.886185       0.000000       0.000000       0.000000   24852.163383  -31568.481962    1140.432393 
 1160000     309.420389   -4616.555706   -5539.801433       0.000000       0.000000       0.000000   24964.204151  -31558.969341    1054.963756 
 1170000     288.056149   -4643.972943   -5503.472247       0.000000       0.000000       0.000000   24958.064935  -31561.870809    1100.333626 
 1180000     303.333311   -4670.507401   -5575.590561       0.000000       0.000000       0.000000   24910.727048  -31564.920895    1078.603286 
 1190000     288.474129   -4649.274331   -5510.020801       0.000000       0.000000       0.000000   24963.533341  -31566.190395    1092.636253 
 1200000     300.291018   -4645.782313   -5541.787907       0.000000       0.000000       0.000000   25023.605609  -31563.467870     998.074354 
 1210000     294.366081   -4591.804423   -5470.131243       0.000000       0.000000       0.000000   24971.932725  -31561.171186    1119.107218 
 1220000     304.471779   -4589.066392   -5497.546503       0.000000       0.000000       0.000000   24996.555219  -31564.386469    1070.284747 
 1230000     297.539926   -4604.485143   -5492.282054       0.000000       0.000000       0.000000   24970.269408  -31559.979972    1097.428511 
 1240000     301.285024   -4604.537443   -5503.508945       0.000000       0.000000       0.000000   24948.753545  -31560.214481    1107.951991 
 1250000     298.304391   -4614.229711   -5504.307625       0.000000       0.000000       0.000000   24963.443015  -31564.429724    1096.679084 
 1260000     304.566382   -4617.152697   -5525.915083       0.000000       0.000000       0.000000   24964.417918  -31563.068739    1072.735739 
 1270000     298.936072   -4656.112953   -5548.075673       0.000000       0.000000       0.000000   24896.432757  -31556.829203    1112.320774 
 1280000     304.648690   -4601.019040   -5510.027016       0.000000       0.000000       0.000000   25022.771092  -31566.330771    1033.532663 
 1290000     308.564915   -4591.469274   -5512.162447       0.000000       0.000000       0.000000   24963.938014  -31565.323811    1089.223350 
 1300000     285.614176   -4698.008500   -5550.221468       0.000000       0.000000       0.000000   24896.699550  -31562.621818    1115.700799 
 1310000     297.807177   -4715.964788   -5604.559120       0.000000       0.000000       0.000000   24827.518137  -31564.668661    1132.591404 
 1320000     285.788951   -4696.865119   -5549.599580       0.000000       0.000000       0.000000   24917.641116  -31561.784607    1094.543912 
 1330000     295.299341   -4587.573020   -5468.684495       0.000000       0.000000       0.000000   24959.080455  -31561.551741    1133.786791 
 1340000     296.116258   -4688.340915   -5571.889899       0.000000       0.000000       0.000000   24877.332668  -31564.185658    1114.963092 
 1350000     290.151815   -4687.335255   -5553.087589       0.000000       0.000000       0.000000   24930.484154  -31565.607117    1082.035374 
 1360000     300.918402   -4645.604952   -5543.482529       0.000000       0.000000       0.000000   24971.142000  -31563.539239    1048.914710 
 1370000     287.650904   -4697.225697   -5555.515835       0.000000       0.000000       0.000000   24863.564371  -31568.058146    1148.977941 
 1380000     297.851253   -4607.344321   -5496.070166       0.000000       0.000000       0.000000   24938.007439  -31561.395558    1127.317952 
 1390000     298.457850   -4625.307102   -5515.842907       0.000000       0.000000       0.000000   24863.733581  -31563.619038    1184.042549 
 1400000     298.458540   -4671.751407   -5562.289271       0.000000       0.000000       0.000000   24905.450646  -31566.667497    1098.927581 
 1410000     309.937041   -4500.092440   -5424.879751       0.000000       0.000000       0.000000   25094.695742  -31560.905445    1041.329952 
 1420000     307.724544   -4631.402228   -5549.587911       0.000000       0.000000       0.000000   24918.249543  -31560.389922    1092.552468 
 1430000     302.377245   -4612.121569   -5514.352028       0.000000       0.000000       0.000000   24899.587417  -31564.040613    1150.101169 
 1440000     290.599915   -4622.827441   -5489.916811       0.000000       0.000000       0.000000   25081.346042  -31563.443360     992.180506 
 1450000     294.841869   -4620.145139   -5499.891614       0.000000       0.000000       0.000000   24927.890914  -31559.528394    1131.745865 
 1460000     301.840431   -4581.046956   -5481.675675       0.000000       0.000000       0.000000   25022.156552  -31562.558226    1058.725998 
 1470000     289.028134   -4663.336938   -5525.736442       0.000000       0.000000       0.000000   25011.863763  -31561.717231    1024.117026 
 1480000     298.757148   -4700.266145   -5591.694993       0.000000       0.000000       0.000000   24811.221055  -31564.868020    1161.951972 
 1490000     302.341415   -4626.331798   -5528.455348       0.000000       0.000000       0.000000   24914.555050  -31561.360509    1118.350110 
 1500000     294.052187   -4588.099399   -5465.489626       0.000000       0.000000       0.000000   24991.539869  -31562.117692    1105.088196 
 1510000     304.875401   -4629.777421   -5539.461857       0.000000       0.000000       0.000000   24951.343696  -31563.075444    1072.269891 
 1520000     299.761636   -4616.766027   -5511.192056       0.000000       0.000000       0.000000   24990.588497  -31563.778880    1061.998326 
 1530000     306.176630   -4579.154666   -5492.721698       0.000000       0.000000       0.000000   24928.976080  -31559.817504    1138.119726 
 1540000     304.633564   -4626.998650   -5535.961493       0.000000       0.000000       0.000000   24932.310603  -31562.141067    1093.868971 
 1550000     297.056126   -4588.928598   -5475.281951       0.000000       0.000000       0.000000   25026.883015  -31563.360381    1061.195415 
 1560000     290.747289   -4602.556547   -5470.085651       0.000000       0.000000       0.000000   25028.542731  -31564.746142    1066.117761 
 1570000     307.658676   -4622.799008   -5540.788154       0.000000       0.000000       0.000000   24931.156807  -31565.876907    1093.931946 
 1580000     299.336027   -4646.141004   -5539.297105       0.000000       0.000000       0.000000   24905.172202  -31568.388176    1123.918868 
 1590000     303.353778   -4625.341683   -5530.485913       0.000000       0.000000       0.000000   24981.441493  -31564.584126    1052.656719 
 1600000     298.329479   -4695.841460   -5585.994232       0.000000       0.000000       0.000000   24842.757101  -31560.699355    1131.948022 
 1610000     293.501290   -4656.440753   -5532.187221       0.000000       0.000000       0.000000   24962.269131  -31562.454577    1067.998225 
 1620000     301.146075   -4575.823939   -5474.380846       0.000000       0.000000       0.000000   24987.755497  -31561.613829    1099.477486 
 1630000     306.812584   -4593.148171   -5508.612755       0.000000       0.000000       0.000000   24949.335426  -31561.881829    1103.933649 
 1640000     305.000929   -4578.150543   -5488.209527       0.000000       0.000000       0.000000   24979.722141  -31564.174141    1096.242473 
 1650000     312.253633   -4591.784897   -5523.484433       0.000000       0.000000       0.000000   24938.704762  -31560.383498    1098.194303 
 1660000     306.218040   -4605.711735   -5519.402325       0.000000       0.000000       0.000000   24960.308607  -31561.036293    1081.325361 
 1670000     297.936533   -4649.045773   -5538.026077       0.000000       0.000000       0.000000   24882.179011  -31565.321352    1145.116264 
 1680000     294.563754   -4647.172672   -5526.089310       0.000000       0.000000       0.000000   24964.750280  -31560.718598    1069.879007 
 1690000     311.687745   -4581.698777   -5511.709822       0.000000       0.000000       0.000000   24936.669809  -31562.581259    1114.201628 
 1700000     294.247025   -4703.153458   -5581.125041       0.000000       0.000000       0.000000   24912.311336  -31563.638314    1070.201936 
 1710000     296.131069   -4638.327432   -5521.920609       0.000000       0.000000       0.000000   24992.265456  -31563.521946    1049.335881 
 1720000     302.746090   -4639.746015   -5543.077030       0.000000       0.000000       0.000000   24936.115882  -31561.118535    1081.925623 
 1730000     295.056481   -4635.210861   -5515.597692       0.000000       0.000000       0.000000   24912.418979  -31562.074420    1134.057748 
 1740000     297.814412   -4598.165294   -5486.781216       0.000000       0.000000       0.000000   24980.117854  -31563.727324    1096.828255 
 1750000     296.910099   -4619.538320   -5505.455961       0.000000       0.000000       0.000000   24962.550442  -31563.319036    1095.312633 
 1760000     300.580040   -4613.963795   -5510.831770       0.000000       0.000000       0.000000   24993.625640  -31559.637198    1055.179787 
 1770000     306.208742   -4567.586401   -5481.249246       0.000000       0.000000       0.000000   24951.090024  -31561.943624    1129.604354 
 1780000     302.627125   -4592.389934   -5495.365985       0.000000       0.000000       0.000000   24971.506876  -31562.862744    1095.989883 
 1790000     310.462971   -4574.487691   -5500.844267       0.000000       0.000000       0.000000   24937.154573  -31561.696193    1123.697353 
 1800000     298.529807   -4564.666755   -5455.417265       0.000000       0.000000       0.000000   25053.707387  -31561.631213    1052.506561 
 1810000     302.296326   -4671.794801   -5573.783817       0.000000       0.000000       0.000000   24957.086388  -31562.563215    1031.693011 
 1820000     295.316711   -4695.454631   -5576.617934       0.000000       0.000000       0.000000   24900.168305  -31567.170932    1090.384693 
 1830000     307.870716   -4584.134137   -5502.755967       0.000000       0.000000       0.000000   24989.820807  -31562.902534    1070.325760 
 1840000     295.360495   -4615.305573   -5496.599517       0.000000       0.000000       0.000000   25018.993512  -31562.640132    1047.047103 
 1850000     298.206489   -4662.109388   -5551.895183       0.000000       0.000000       0.000000   24984.224622  -31563.103903    1026.984098 
 1860000     293.619802   -4720.438331   -5596.538412       0.000000       0.000000       0.000000   24826.444946  -31560.805126    1137.821767 
 1870000     304.961257   -4635.638196   -5545.578808       0.000000       0.000000       0.000000   24897.556229  -31562.077644    1118.942606 
 1880000     290.393492   -4653.553986   -5520.027434       0.000000       0.000000       0.000000   24934.380220  -31560.389117    1105.981463 
 1890000     292.647891   -4635.106247   -5508.306350       0.000000       0.000000       0.000000   24964.241660  -31563.628080    1091.080070 
 1900000     293.370783   -4658.409179   -5533.766241       0.000000       0.000000       0.000000   24960.435258  -31564.052212    1069.850713 
 1910000     299.414481   -4642.600958   -5535.991151       0.000000       0.000000       0.000000   24975.530893  -31566.067112    1054.545068 
 1920000     299.238279   -4635.150703   -5528.015146       0.000000       0.000000       0.000000   24929.151206  -31564.164978    1106.998627 
 1930000     304.274702   -4619.494020   -5527.386094       0.000000       0.000000       0.000000   24881.186917  -31563.187057    1154.614046 
 1940000     298.427443   -4668.849315   -5559.294394       0.000000       0.000000       0.000000   24837.272210  -31563.213120    1166.646517 
 1950000     292.525854   -4650.979823   -5523.815792       0.000000       0.000000       0.000000   24936.127798  -31564.096527    1104.152937 
 1960000     296.443553   -4662.717756   -5547.243319       0.000000       0.000000       0.000000   24930.669376  -31562.587395    1084.674700 
 1970000     306.748387   -4603.793105   -5519.066138       0.000000       0.000000       0.000000   24976.553984  -31564.331680    1068.711558 
 1980000     288.829933   -4602.995093   -5464.803207       0.000000       0.000000       0.000000   25015.831064  -31559.873811    1079.239540 
 1990000     298.034841   -4640.039761   -5529.313395       0.000000       0.000000       0.000000   24937.231117  -31564.473866    1097.929353 
 2000000     302.937228   -4609.864358   -5513.765688       0.000000       0.000000       0.000000   24948.740445  -31565.544745    1103.038612 
 2010000     308.650121   -4588.989616   -5509.937025       0.000000       0.000000       0.000000   24985.730727  -31560.736321    1065.068569 
 2020000     305.154278   -4625.384858   -5535.901403       0.000000       0.000000       0.000000   24905.244260  -31567.634032    1126.488370 
 2030000     294.291718   -4595.835527   -5473.940466       0.000000       0.000000       0.000000   25067.753870  -31562.952326    1021.257990 
 2040000     285.800386   -4639.370641   -5492.139221       0.000000       0.000000       0.000000   25006.630421  -31563.480875    1064.711232 
 2050000     300.798874   -4618.912136   -5516.433067       0.000000       0.000000       0.000000   24991.606878  -31566.013272    1057.973326 
 2060000     310.309021   -4608.393921   -5534.291143       0.000000       0.000000       0.000000   24951.628891  -31563.211434    1077.291401 
 2070000     304.513950   -4679.197661   -5587.803602       0.000000       0.000000       0.000000   24906.554475  -31566.179545    1071.821468 
 2080000     296.057700   -4672.848855   -5556.223115       0.000000       0.000000       0.000000   24863.588993  -31561.893245    1142.081136 
 2090000     299.521814   -4658.461660   -5552.172112       0.000000       0.000000       0.000000   24910.724912  -31564.495184    1101.598160 
 2100000     293.729775   -4633.882766   -5510.310984       0.000000       0.000000       0.000000   24986.624854  -31561.873251    1064.937413 
 2110000     299.370985   -4648.681736   -5541.942145       0.000000       0.000000       0.000000   24857.757871  -31567.574555    1167.874538 
 2120000     304.490081   -4615.153275   -5523.687995       0.000000       0.000000       0.000000   24991.750924  -31563.190356    1047.751437 
 2130000     307.099715   -4601.440226   -5517.761549       0.000000       0.000000       0.000000   24964.176981  -31561.271407    1079.332877 
 2140000     303.390218   -4665.007482   -5570.260441       0.000000       0.000000       0.000000   24867.225996  -31563.667773    1126.181335 
 2150000     295.857064   -4579.172072   -5461.947676       0.000000       0.000000       0.000000   25062.449246  -31558.000893    1033.603970 
 2160000     302.244285   -4642.574538   -5544.408273       0.000000       0.000000       0.000000   24894.059191  -31561.301655    1122.834192 
 2170000     309.089282   -4605.199861   -5527.457637       0.000000       0.000000       0.000000   24962.352233  -31562.017033    1072.207163 
 2180000     308.686328   -4567.998424   -5489.053869       0.000000       0.000000       0.000000   25030.262425  -31561.076815    1041.760520 
 2190000     301.341894   -4652.828855   -5551.970043       0.000000       0.000000       0.000000   24878.247621  -31564.208612    1133.990949 
 2200000     283.092357   -4719.190823   -5563.879210       0.000000       0.000000       0.000000   24904.200344  -31561.590557    1093.511004 
 2210000     304.149834   -4639.317679   -5546.837173       0.000000       0.000000       0.000000   24875.417969  -31560.903622    1138.648480 
 2220000     299.782452   -4592.346474   -5486.834614       0.000000       0.000000       0.000000   24968.881570  -31557.793218    1102.077034 
 2230000     304.750044   -4659.050700   -5568.361097       0.000000       0.000000       0.000000   24857.708071  -31569.230197    1143.161029 
 2240000     306.407936   -4559.029829   -5473.287028       0.000000       0.000000       0.000000   25025.418788  -31565.907889    1067.202073 
 2250000     302.052048   -4643.938318   -5545.198457       0.000000       0.000000       0.000000   24936.161108  -31563.496371    1082.136806 
 2260000     290.099624   -4630.301475   -5495.898081       0.000000       0.000000       0.000000   25000.174682  -31564.778372    1068.705609 
 2270000     293.025193   -4703.092621   -5577.418512       0.000000       0.000000       0.000000   24849.332673  -31563.803774    1137.052589 
 2280000     294.264204   -4692.681479   -5570.704322       0.000000       0.000000       0.000000   24856.095093  -31564.156540    1137.357125 
 2290000     301.490230   -4623.197497   -5522.781290       0.000000       0.000000       0.000000   24974.204228  -31561.916956    1064.931438 
 2300000     300.170158   -4613.984068   -5509.629042       0.000000       0.000000       0.000000   24962.988033  -31561.611193    1088.994118 
 2310000     296.645798   -4645.200114   -5530.329136       0.000000       0.000000       0.000000   24965.039809  -31562.569315    1067.200371 
 2320000     307.229365   -4649.616879   -5566.325051       0.000000       0.000000       0.000000   24853.131989  -31565.147963    1145.690923 
 2330000     304.196658   -4649.338592   -5556.997799       0.000000       0.000000       0.000000   24908.077111  -31563.518715    1098.443805 
 2340000     299.220722   -4651.699168   -5544.511224       0.000000       0.000000       0.000000   24897.137291  -31564.924304    1123.275789 
 2350000     305.893167   -4634.865046   -5547.586282       0.000000       0.000000       0.000000   24979.893141  -31565.733906    1038.254484 
 2360000     310.762133   -4627.694074   -5554.943286       0.000000       0.000000       0.000000   24884.826215  -31561.394278    1121.624776 
 2370000     294.095440   -4642.591917   -5520.111204       0.000000       0.000000       0.000000   24888.640573  -31565.550176    1156.798398 
 2380000     309.181741   -4597.376949   -5519.910601       0.000000       0.000000       0.000000   24870.295585  -31563.135534    1172.929348 
 2390000     297.913766   -4643.701300   -5532.613673       0.000000       0.000000       0.000000   24896.497838  -31560.592571    1131.481059 
 2400000     295.566125   -4670.945653   -5552.853156       0.000000       0.000000       0.000000   24887.850660  -31564.448481    1123.744665 
 2410000     295.255336   -4647.900912   -5528.881084       0.000000       0.000000       0.000000   24921.157576  -31565.987565    1115.948905 
 2420000     295.354315   -4626.020367   -5507.295874       0.000000       0.000000       0.000000   24989.663751  -31562.227978    1065.268353 
 2430000     277.435505   -4740.274915   -5568.084439       0.000000       0.000000       0.000000   24914.951108  -31562.514104    1079.478557 
 2440000     306.245063   -4621.272094   -5535.043314       0.000000       0.000000       0.000000   24905.352864  -31562.331920    1121.935742 
 2450000     293.997142   -4609.027184   -5486.253168       0.000000       0.000000       0.000000   25006.754387  -31563.793104    1070.785549 
 2460000     303.569439   -4640.541848   -5546.329565       0.000000       0.000000       0.000000   24901.306078  -31559.301601    1111.665958 
 2470000     299.811956   -4599.167054   -5493.743228       0.000000       0.000000       0.000000   25062.717812  -31558.601583    1002.140543 
 2480000     293.460479   -4680.868790   -5556.493485       0.000000       0.000000       0.000000   24929.550571  -31559.746983    1073.702928 
 2490000     309.119253   -4576.121222   -5498.468424       0.000000       0.000000       0.000000   24948.066382  -31560.567520    1114.032714 
 2500000     301.731946   -4634.977395   -5535.282417       0.000000       0.000000       0.000000   24877.802317  -31563.808916    1150.724181 
 2510000     306.426981   -4644.430985   -5558.745011       0.000000       0.000000       0.000000   24894.295897  -31562.237329    1109.196421 
 2520000     294.130663   -4668.052538   -5545.676923       0.000000       0.000000       0.000000   24902.314276  -31563.999003    1116.007803 
 2530000     303.675627   -4624.577545   -5530.682105       0.000000       0.000000       0.000000   24875.827824  -31564.623351    1158.113421 
 2540000     309.687300   -4565.450839   -5489.492974       0.000000       0.000000       0.000000   25103.050962  -31565.239744     972.695808 
 2550000     311.421737   -4569.951404   -5499.168738       0.000000       0.000000       0.000000   24984.170086  -31564.990656    1081.651831 
 2560000     302.685724   -4614.919261   -5518.070157       0.000000       0.000000       0.000000   24936.866371  -31567.801067    1112.864540 
 2570000     304.763603   -4615.870429   -5525.221282       0.000000       0.000000       0.000000   24982.920405  -31564.625449    1056.483763 
 2580000     310.101991   -4634.320525   -5559.600010       0.000000       0.000000       0.000000   24932.985865  -31562.138383    1069.552508 
 2590000     307.360036   -4571.395679   -5488.493746       0.000000       0.000000       0.000000   25012.918883  -31560.611448    1059.198820 
 2600000     303.555712   -4670.115787   -5575.862545       0.000000       0.000000       0.000000   24903.285545  -31564.243253    1085.095164 
 2610000     298.886177   -4587.576601   -5479.390445       0.000000       0.000000       0.000000   25012.036965  -31564.108343    1072.680932 
 2620000     302.096816   -4582.559882   -5483.953599       0.000000       0.000000       0.000000   25022.646926  -31560.599942    1053.999416 
 2630000     286.722062   -4677.422616   -5532.941283       0.000000       0.000000       0.000000   24922.921336  -31564.722852    1108.860232 
 2640000     314.445044   -4518.889143   -5457.127392       0.000000       0.000000       0.000000   25042.298540  -31559.241351    1059.815418 
 2650000     302.895142   -4533.924261   -5437.700017       0.000000       0.000000       0.000000   25078.570110  -31563.092776    1046.822650 
 2660000     296.937983   -4678.066112   -5564.066951       0.000000       0.000000       0.000000   24905.551070  -31564.301446    1094.683424 
 2670000     300.753022   -4680.496706   -5577.880823       0.000000       0.000000       0.000000   24883.733503  -31564.168013    1102.553687 
 2680000     295.896354   -4595.915536   -5478.808371       0.000000       0.000000       0.000000   25004.923521  -31564.899933    1081.168041 
 2690000     307.633894   -4574.321315   -5492.236517       0.000000       0.000000       0.000000   25039.023137  -31563.342033    1032.082379 
 2700000     301.595659   -4698.377480   -5598.275851       0.000000       0.000000       0.000000   24843.924340  -31561.695325    1119.495134 
 2710000     300.265775   -4588.826027   -5484.756301       0.000000       0.000000       0.000000   24968.772942  -31562.650133    1109.120890 
 2720000     296.550682   -4611.903656   -5496.748871       0.000000       0.000000       0.000000   24972.220034  -31563.537926    1094.569022 
 2730000     300.928342   -4683.397853   -5581.305090       0.000000       0.000000       0.000000   24827.645504  -31564.384946    1155.434352 
 2740000     288.568400   -4658.118145   -5519.145898       0.000000       0.000000       0.000000   24914.183182  -31567.191016    1133.861936 
 2750000     298.265577   -4653.343834   -5543.305937       0.000000       0.000000       0.000000   24940.607425  -31567.392242    1083.478880 
 2760000     308.638263   -4584.628576   -5505.540605       0.000000       0.000000       0.000000   24962.876237  -31562.491809    1094.074967 
 2770000     309.518902   -4670.442772   -5593.982441       0.000000       0.000000       0.000000   24862.808532  -31564.090601    1107.299628 
 2780000     305.424543   -4677.021671   -5588.344631       0.000000       0.000000       0.000000   24909.019872  -31566.327151    1068.962648 
 2790000     294.439111   -4651.726183   -5530.270911       0.000000       0.000000       0.000000   24837.571721  -31562.868177    1195.025545 
 2800000     304.273187   -4581.801665   -5489.689219       0.000000       0.000000       0.000000   25000.584344  -31560.685591    1070.412028 
 2810000     290.946770   -4640.905962   -5509.030274       0.000000       0.000000       0.000000   24986.854156  -31563.055778    1067.171347 
 2820000     290.383530   -4629.054128   -5495.497850       0.000000       0.000000       0.000000   25060.622982  -31561.546503    1005.425671 
 2830000     295.962105   -4626.154198   -5509.243221       0.000000       0.000000       0.000000   24937.506997  -31561.806079    1115.055861 
 2840000     289.479327   -4672.990997   -5536.736767       0.000000       0.000000       0.000000   24903.118841  -31561.036979    1121.181371 
 2850000     283.162384   -4655.946779   -5500.844113       0.000000       0.000000       0.000000   25005.339762  -31560.036455    1053.852579 
 2860000     305.506842   -4625.924685   -5537.493208       0.000000       0.000000       0.000000   24907.385927  -31563.228483    1118.349348 
 2870000     308.126395   -4654.984566   -5574.369287       0.000000       0.000000       0.000000   24878.126065  -31560.800968    1108.305616 
 2880000     296.005245   -4623.066447   -5506.284193       0.000000       0.000000       0.000000   24990.636319  -31563.008075    1066.087563 
 2890000     303.075646   -4623.605768   -5527.920109       0.000000       0.000000       0.000000   24910.197988  -31558.149318    1120.031221 
 2900000     306.393034   -4622.611572   -5536.824306       0.000000       0.000000       0.000000   24931.700563  -31564.158775    1095.633906 
 2910000     299.002677   -4583.225702   -5475.387158       0.000000       0.000000       0.000000   25054.966300  -31563.024924    1032.671466 
 2920000     285.355677   -4712.244341   -5563.686002       0.000000       0.000000       0.000000   24906.409065  -31564.118426    1094.023358 
 2930000     288.731902   -4615.135713   -5476.651324       0.000000       0.000000       0.000000   25033.070505  -31560.863892    1051.142063 
 2940000     303.996969   -4619.958362   -5527.021738       0.000000       0.000000       0.000000   24897.253922  -31566.044285    1141.768625 
 2950000     296.052446   -4670.897114   -5554.255697       0.000000       0.000000       0.000000   24915.645922  -31565.751502    1095.849883 
 2960000     316.022077   -4568.516127   -5511.459913       0.000000       0.000000       0.000000   24905.913217  -31563.159033    1145.785903 
 2970000     293.769581   -4687.123922   -5563.670914       0.000000       0.000000       0.000000   24954.090237  -31561.697324    1043.936173 
 2980000     291.408998   -4713.448785   -5582.952291       0.000000       0.000000       0.000000   24888.719337  -31564.007868    1092.336241 
 2990000     294.207755   -4689.962959   -5567.817370       0.000000       0.000000       0.000000   24900.940924  -31560.830495    1092.072201 
 3000000     310.372525   -4617.495958   -5543.582663       0.000000       0.000000       0.000000   24956.230538  -31562.025038    1062.211837 
 3010000     304.890030   -4659.292239   -5569.020324       0.000000       0.000000       0.000000   24901.675376  -31565.181209    1094.485509 
 3020000     308.889179   -4624.219619   -5545.880327       0.000000       0.000000       0.000000   24877.995643  -31558.726794    1134.850823 
 3030000     306.177624   -4585.061673   -5498.631668       0.000000       0.000000       0.000000   25029.574772  -31563.461433    1035.254993 
 3040000     300.131327   -4569.020874   -5464.549985       0.000000       0.000000       0.000000   25023.821331  -31559.248382    1070.877066 
 3050000     302.504382   -4642.250960   -5544.860770       0.000000       0.000000       0.000000   24942.452424  -31562.794811    1075.481618 
 3060000     298.528011   -4638.385183   -5529.130335       0.000000       0.000000       0.000000   24923.977121  -31561.005799    1107.898342 
 3070000     312.358835   -4598.390626   -5530.404062       0.000000       0.000000       0.000000   24942.074906  -31563.979946    1091.500977 
 3080000     289.110410   -4589.619439   -5452.264438       0.000000       0.000000       0.000000   25045.685672  -31564.031040    1066.080929 
 3090000     298.096023   -4646.043228   -5535.499417       0.000000       0.000000       0.000000   24913.072459  -31564.814643    1116.242767 
 3100000     299.114194   -4633.007470   -5525.501668       0.000000       0.000000       0.000000   24921.620316  -31563.021391    1115.899406 
 3110000     293.702672   -4612.027432   -5488.374781       0.000000       0.000000       0.000000   25082.166739  -31562.555790     992.014270 
 3120000     296.816906   -4642.282427   -5527.921999       0.000000       0.000000       0.000000   24940.852098  -31565.150257    1096.376160 
 3130000     312.053066   -4606.201096   -5537.302183       0.000000       0.000000       0.000000   24975.011713  -31561.493698    1049.179802 
 3140000     302.180993   -4594.545478   -5496.190362       0.000000       0.000000       0.000000   25002.038052  -31565.338072    1067.109659 
 3150000     300.529050   -4586.088782   -5482.804615       0.000000       0.000000       0.000000   24997.589796  -31567.722008    1087.327597 
 3160000     302.020788   -4613.794931   -5514.961796       0.000000       0.000000       0.000000   24937.209160  -31563.739578    1111.568621 
 3170000     285.610606   -4661.333857   -5513.536174       0.000000       0.000000       0.000000   24958.172241  -31561.575128    1089.866714 
 3180000     297.896343   -4606.809016   -5495.669402       0.000000       0.000000       0.000000   24928.317707  -31561.580362    1137.593254 
 3190000     302.552540   -4611.101841   -5513.855345       0.000000       0.000000       0.000000   24912.618597  -31565.959919    1139.485977 
 3200000     302.007572   -4664.184767   -5565.312201       0.000000       0.000000       0.000000   24911.160887  -31560.888684    1084.415597 
 3210000     299.612560   -4698.869272   -5592.850491       0.000000       0.000000       0.000000   24780.940520  -31562.354229    1188.563218 
 3220000     294.281499   -4666.554428   -5544.628874       0.000000       0.000000       0.000000   24907.719885  -31558.397699    1106.048940 
 3230000     304.160350   -4567.955793   -5475.506665       0.000000       0.000000       0.000000   25011.584515  -31562.374244    1075.283065 
 3240000     289.628417   -4693.964817   -5558.155441       0.000000       0.000000       0.000000   25015.860991  -31566.277996     992.261564 
 3250000     301.726414   -4646.519782   -5546.808298       0.000000       0.000000       0.000000   24868.283180  -31557.965833    1142.874355 
 3260000     303.808311   -4541.410425   -5447.910885       0.000000       0.000000       0.000000   25052.972235  -31558.708586    1057.825466 
 3270000     304.916828   -4630.783694   -5540.591740       0.000000       0.000000       0.000000   24865.003764  -31561.419598    1155.824093 
 3280000     305.284135   -4636.166855   -5547.070867       0.000000       0.000000       0.000000   24987.114553  -31563.591868    1029.406448 
 3290000     299.688112   -4624.500708   -5518.707357       0.000000       0.000000       0.000000   24866.701691  -31561.158118    1175.749069 
 3300000     301.822301   -4633.904996   -5534.479619       0.000000       0.000000       0.000000   24869.956829  -31563.147168    1158.710719 
 3310000     289.045561   -4676.209490   -5538.660994       0.000000       0.000000       0.000000   24934.267076  -31561.314446    1088.386375 
 3320000     295.622692   -4619.472524   -5501.548811       0.000000       0.000000       0.000000   24881.392574  -31565.923171    1182.981786 
 3330000     295.908422   -4632.041883   -5514.970728       0.000000       0.000000       0.000000   24908.234877  -31560.009540    1136.803935 
 3340000     292.348613   -4639.354220   -5511.661340       0.000000       0.000000       0.000000   24943.231535  -31558.890201    1103.997326 
 3350000     300.738313   -4657.929388   -5555.269619       0.000000       0.000000       0.000000   24926.788914  -31565.384315    1083.325782 
 3360000     312.054599   -4567.847410   -5498.953069       0.000000       0.000000       0.000000   24971.842451  -31565.725305    1094.929785 
 3370000     313.241433   -4581.295201   -5515.942127       0.000000       0.000000       0.000000   24914.284933  -31560.208251    1129.981191 
 3380000     303.456552   -4592.220907   -5497.671794       0.000000       0.000000       0.000000   24978.120658  -31562.577874    1086.785422 
 3390000     300.568097   -4700.657320   -5597.489660       0.000000       0.000000       0.000000   24806.781603  -31563.590954    1159.319691 
 3400000     299.960081   -4644.685933   -5539.704080       0.000000       0.000000       0.000000   24953.273855  -31569.350983    1076.373049 
 3410000     312.335616   -4545.346060   -5477.290216       0.000000       0.000000       0.000000   24991.185130  -31562.899472    1094.424127 
 3420000     299.674245   -4575.510060   -5469.675332       0.000000       0.000000       0.000000   25010.800540  -31566.054092    1085.578220 
 3430000     282.666332   -4633.647929   -5477.065147       0.000000       0.000000       0.000000   24991.605019  -31560.045714    1091.375548 
 3440000     307.028640   -4549.036551   -5465.145800       0.000000       0.000000       0.000000   25034.737659  -31566.152438    1066.268979 
 3450000     299.501254   -4577.367541   -5471.016647       0.000000       0.000000       0.000000   24997.723147  -31557.795730    1089.055937 
 3460000     301.277882   -4523.620346   -5422.570537       0.000000       0.000000       0.000000   25090.718684  -31560.560773    1047.271551 
 3470000     301.505677   -4648.793604   -5548.423488       0.000000       0.000000       0.000000   24900.919368  -31562.743615    1113.400759 
 3480000     324.085040   -4532.668286   -5499.670266       0.000000       0.000000       0.000000   24970.845884  -31559.929083    1089.412933 
 3490000     299.375496   -4651.373569   -5544.647439       0.000000       0.000000       0.000000   24991.227727  -31563.245651    1027.370486 
 3500000     302.770880   -4691.388639   -5594.793623       0.000000       0.000000       0.000000   24912.627357  -31566.984081    1059.563101 
 3510000     300.081219   -4636.706122   -5532.085721       0.000000       0.000000       0.000000   25000.565669  -31560.964747    1028.313357 
 3520000     300.769006   -4678.216516   -5575.648328       0.000000       0.000000       0.000000   24896.332884  -31562.502201    1090.520989 
 3530000     308.397397   -4618.656772   -5538.850107       0.000000       0.000000       0.000000   24969.712769  -31565.213516    1056.650640 
 3540000     293.049931   -4674.114418   -5548.514125       0.000000       0.000000       0.000000   24890.571730  -31566.514604    1127.428749 
 3550000     315.991043   -4616.656347   -5559.507533       0.000000       0.000000       0.000000   24888.881351  -31564.070414    1115.681529 
 3560000     303.592310   -4682.196498   -5588.052457       0.000000       0.000000       0.000000   24842.106166  -31563.522630    1133.364006 
 3570000     289.346324   -4781.771151   -5645.120069       0.000000       0.000000       0.000000   24733.889840  -31567.412873    1188.402964 
 3580000     288.942596   -4620.994650   -5483.138925       0.000000       0.000000       0.000000   24949.084914  -31559.981521    1127.757681 
 3590000     293.249610   -4606.071356   -5481.066862       0.000000       0.000000       0.000000   25042.870163  -31563.370424    1039.433399 
 3600000     305.072806   -4584.846949   -5495.120400       0.000000       0.000000       0.000000   24974.052408  -31564.185251    1095.012444 
 3610000     295.351754   -4635.958176   -5517.226038       0.000000       0.000000       0.000000   24940.364895  -31564.559283    1106.968349 
 3620000     291.975370   -4667.710937   -5538.904378       0.000000       0.000000       0.000000   24910.894222  -31559.871420    1110.072820 
 3630000     298.718309   -4641.481074   -5532.794035       0.000000       0.000000       0.000000   24958.533042  -31565.263393    1073.936316 
 3640000     284.285909   -4733.199986   -5581.449683       0.000000       0.000000       0.000000   24901.762564  -31565.705456    1082.493209 
 3650000     304.210890   -4664.658308   -5572.359983       0.000000       0.000000       0.000000   24862.890137  -31562.191443    1126.941324 
 3660000     290.319193   -4704.269302   -5570.521057       0.000000       0.000000       0.000000   24932.840692  -31565.271210    1061.909462 
 3670000     297.626750   -4636.747275   -5524.803251       0.000000       0.000000       0.000000   24922.025546  -31560.562887    1113.734090 
 3680000     302.628302   -4646.905491   -5549.885052       0.000000       0.000000       0.000000   24914.038715  -31566.884872    1102.961105 
 3690000     295.325975   -4654.662037   -5535.852983       0.000000       0.000000       0.000000   24937.063084  -31564.349982    1091.433915 
 3700000     294.336084   -4626.748279   -5504.985595       0.000000       0.000000       0.000000   24892.971657  -31564.797335    1166.840082 
 3710000     304.839093   -4616.694305   -5526.270405       0.000000       0.000000       0.000000   24910.862089  -31564.370310    1127.237815 
 3720000     288.554581   -4632.304261   -5493.290783       0.000000       0.000000       0.000000   24971.524585  -31563.363247    1098.547878 
 3730000     296.639313   -4653.003138   -5538.112810       0.000000       0.000000       0.000000   24946.247101  -31564.375829    1080.015918 
 3740000     292.936407   -4713.696347   -5587.757319       0.000000       0.000000       0.000000   24873.305571  -31563.599075    1102.536184 
 3750000     303.035938   -4654.867271   -5559.063133       0.000000       0.000000       0.000000   24843.315800  -31563.693408    1161.314475 
 3760000     294.388316   -4686.720738   -5565.113905       0.000000       0.000000       0.000000   24934.188296  -31561.656047    1062.353845 
 3770000     311.511642   -4616.772648   -5546.258238       0.000000       0.000000       0.000000   24971.673755  -31560.582969    1042.650976 
 3780000     297.509232   -4661.166374   -5548.871702       0.000000       0.000000       0.000000   24872.689902  -31563.222274    1141.660669 
 3790000     298.153393   -4695.366658   -5584.994027       0.000000       0.000000       0.000000   24928.926111  -31565.426344    1051.506207 
 3800000     299.204369   -4623.251903   -5516.015165       0.000000       0.000000       0.000000   24983.025729  -31557.565923    1058.525028 
 3810000     291.986319   -4659.103992   -5530.330100       0.000000       0.000000       0.000000   24920.257432  -31559.289782    1108.702249 
 3820000     299.548295   -4637.562474   -5531.351937       0.000000       0.000000       0.000000   24938.393472  -31564.973477    1095.228068 
 3830000     288.321287   -4695.815464   -5556.105885       0.000000       0.000000       0.000000   24907.255158  -31565.126933    1101.765890 
 3840000     293.331686   -4606.959936   -5482.200340       0.000000       0.000000       0.000000   24973.966876  -31563.704812    1107.537596 
 3850000     288.608090   -4661.339788   -5522.485970       0.000000       0.000000       0.000000   24944.680099  -31565.171891    1098.005822 
 3860000     301.873691   -4579.470249   -5480.198209       0.000000       0.000000       0.000000   24975.940750  -31562.705828    1106.566869 
 3870000     303.362613   -4629.165581   -5534.336174       0.000000       0.000000       0.000000   24968.168851  -31562.642486    1060.137460 
 3880000     291.514457   -4676.180796   -5545.998968       0.000000       0.000000       0.000000   24846.445113  -31564.015836    1171.571755 
 3890000     301.038895   -4632.164689   -5530.401792       0.000000       0.000000       0.000000   24915.456778  -31563.583971    1117.725401 
 3900000     290.267924   -4697.604822   -5563.703602       0.000000       0.000000       0.000000   24908.240093  -31563.537023    1091.593328 
 3910000     303.541738   -4636.379997   -5542.085060       0.000000       0.000000       0.000000   24868.167085  -31562.024587    1151.772441 
 3920000     296.544111   -4656.331257   -5541.156866       0.000000       0.000000       0.000000   24878.274370  -31564.558952    1145.127716 
 3930000     299.064347   -4664.040964   -5556.386429       0.000000       0.000000       0.000000   24860.785987  -31564.537002    1147.364587 
 3940000     314.284301   -4617.059270   -5554.817895       0.000000       0.000000       0.000000   24921.654658  -31564.724857    1088.252305 
 3950000     301.624349   -4601.361370   -5501.345345       0.000000       0.000000       0.000000   24956.867128  -31561.118400    1102.905928 
 3960000     301.486679   -4665.424153   -5564.997351       0.000000       0.000000       0.000000   24885.659550  -31563.376771    1112.719870 
 3970000     307.453548   -4610.693986   -5528.071071       0.000000       0.000000       0.000000   25034.305962  -31566.726136    1004.349102 
 3980000     300.174551   -4588.240703   -5483.898784       0.000000       0.000000       0.000000   25046.189869  -31565.622827    1035.534175 
 3990000     293.830239   -4618.451035   -5495.179015       0.000000       0.000000       0.000000   25006.116610  -31565.964793    1064.669167 
 4000000     289.597948   -4610.311215   -5474.410926       0.000000       0.000000       0.000000   25027.000582  -31563.140320    1061.728812 
 4010000     298.802561   -4634.834006   -5526.398358       0.000000       0.000000       0.000000   24915.083482  -31559.872629    1118.390790 
 4020000     298.425839   -4601.076987   -5491.517279       0.000000       0.000000       0.000000   25015.979073  -31563.433359    1055.937007 
 4030000     285.455821   -4581.229060   -5432.969530       0.000000       0.000000       0.000000   25074.820669  -31559.696799    1051.906600 
 4040000     303.321632   -4643.073797   -5548.122109       0.000000       0.000000       0.000000   24884.777678  -31562.161655    1129.261868 
 4050000     286.956439   -4726.852668   -5583.070669       0.000000       0.000000       0.000000   24846.400873  -31565.483319    1136.011778 
 4060000     303.318642   -4611.374021   -5516.413412       0.000000       0.000000       0.000000   24955.914292  -31561.644487    1089.316783 
 4070000     299.553189   -4615.563784   -5509.367852       0.000000       0.000000       0.000000   24988.347294  -31563.887535    1066.172388 
 4080000     296.420768   -4602.330215   -5486.787793       0.000000       0.000000       0.000000   25038.293139  -31564.345632    1039.264700 
 4090000     301.021259   -4564.740448   -5462.924930       0.000000       0.000000       0.000000   25026.182145  -31562.632900    1073.525824 
 4100000     304.310683   -4615.019582   -5523.019015       0.000000       0.000000       0.000000   24966.685786  -31562.891040    1073.186238 
 4110000     295.844644   -4590.798871   -5473.537417       0.000000       0.000000       0.000000   25019.848000  -31563.279932    1069.894515 
 4120000     302.550538   -4605.110917   -5507.858448       0.000000       0.000000       0.000000   25008.279617  -31561.547884    1045.409819 
 4130000     285.770079   -4730.511480   -5583.189628       0.000000       0.000000       0.000000   24852.516606  -31564.649235    1128.943001 
 4140000     310.172230   -4600.710504   -5526.199568       0.000000       0.000000       0.000000   24945.442304  -31561.883244    1090.241372 
 4150000     319.071819   -4585.726409   -5537.769984       0.000000       0.000000       0.000000   24889.436085  -31564.869390    1137.663321 
 4160000     314.469731   -4535.060873   -5473.372781       0.000000       0.000000       0.000000   25102.349827  -31564.997889     989.275281 
 4170000     304.619961   -4679.062385   -5587.984642       0.000000       0.000000       0.000000   24945.838446  -31563.547112    1029.724025 
 4180000     296.315226   -4624.457411   -5508.600075       0.000000       0.000000       0.000000   24967.132876  -31562.394021    1086.661071 
 4190000     283.713715   -4629.256270   -5475.798661       0.000000       0.000000       0.000000   24984.564331  -31561.977431    1101.614439 
 4200000     284.972511   -4658.997847   -5509.296221       0.000000       0.000000       0.000000   24963.107019  -31561.912473    1089.509233 
 4210000     298.344629   -4605.401963   -5495.599940       0.000000       0.000000       0.000000   24990.859054  -31563.479996    1077.021003 
 4220000     301.273088   -4644.529894   -5543.465780       0.000000       0.000000       0.000000   24925.219077  -31565.917336    1097.232479 
 4230000     296.315212   -4647.669323   -5531.811946       0.000000       0.000000       0.000000   24934.118354  -31563.441302    1097.511002 
 4240000     301.825118   -4602.336999   -5502.920028       0.000000       0.000000       0.000000   25025.797043  -31562.332088    1033.615017 
 4250000     310.034030   -4639.521869   -5564.598575       0.000000       0.000000       0.000000   24866.376602  -31562.897752    1131.922575 
 4260000     293.918143   -4717.836978   -5594.827246       0.000000       0.000000       0.000000   24848.806979  -31565.146966    1121.512741 
 4270000     300.704571   -4613.722027   -5510.961577       0.000000       0.000000       0.000000   24972.908376  -31560.410536    1076.540583 
 4280000     302.794067   -4635.939078   -5539.413248       0.000000       0.000000       0.000000   24956.179876  -31562.988858    1067.395734 
 4290000     302.776924   -4587.002541   -5490.425560       0.000000       0.000000       0.000000   25054.203664  -31563.556525    1018.927301 
 4300000     295.020407   -4591.091078   -5471.370273       0.000000       0.000000       0.000000   25005.905784  -31559.886436    1082.610380 
 4310000     296.367603   -4663.698802   -5547.997748       0.000000       0.000000       0.000000   24946.103030  -31562.344186    1068.243408 
 4320000     291.258383   -4606.651379   -5475.705479       0.000000       0.000000       0.000000   25059.964839  -31563.597728    1027.927410 
 4330000     308.118159   -4587.358096   -5506.718241       0.000000       0.000000       0.000000   24923.724889  -31557.647655    1127.204524 
 4340000     296.845432   -4630.698613   -5516.423299       0.000000       0.000000       0.000000   24946.708965  -31562.644169    1099.511905 
 4350000     303.108828   -4634.038112   -5538.451461       0.000000       0.000000       0.000000   24942.363653  -31562.661487    1081.846374 
 4360000     308.974016   -4522.222774   -5444.136618       0.000000       0.000000       0.000000   25105.684665  -31563.746662    1013.925379 
 4370000     298.059870   -4609.914296   -5499.262610       0.000000       0.000000       0.000000   24974.328583  -31563.521677    1089.930484 
 4380000     308.740946   -4663.924647   -5585.143061       0.000000       0.000000       0.000000   24852.328265  -31561.538018    1124.066692 
 4390000     293.534977   -4683.079630   -5558.926611       0.000000       0.000000       0.000000   24928.429200  -31562.660318    1075.304506 
 4400000     285.301126   -4594.359937   -5445.638828       0.000000       0.000000       0.000000   25076.749914  -31560.116656    1037.727915 
 4410000     301.350547   -4651.067466   -5550.234475       0.000000       0.000000       0.000000   24888.841998  -31565.393203    1126.316730 
 4420000     289.323989   -4683.307047   -5546.589321       0.000000       0.000000       0.000000   24889.734661  -31561.891198    1125.567216 
 4430000     293.906276   -4573.681884   -5450.636745       0.000000       0.000000       0.000000   25067.123464  -31562.550238    1044.790028 
 4440000     293.439905   -4647.283067   -5522.846372       0.000000       0.000000       0.000000   24976.123705  -31562.419566    1063.449490 
 4450000     308.260201   -4590.552826   -5510.336796       0.000000       0.000000       0.000000   24995.955429  -31566.319657    1060.027433 
 4460000     282.753526   -4700.914324   -5544.591711       0.000000       0.000000       0.000000   24919.963091  -31562.996584    1098.441782 
 4470000     294.095670   -4646.258840   -5523.778812       0.000000       0.000000       0.000000   24970.728433  -31565.763887    1071.256642 
 4480000     302.009888   -4609.572875   -5510.707218       0.000000       0.000000       0.000000   24940.237109  -31564.783824    1113.839496 
 4490000     306.902714   -4560.116706   -5475.850218       0.000000       0.000000       0.000000   25001.213542  -31566.076967    1089.013207 
 4500000     299.955231   -4576.273856   -5471.277532       0.000000       0.000000       0.000000   25039.082911  -31560.725678    1050.365235 
 4510000     297.370525   -4586.885702   -5474.177156       0.000000       0.000000       0.000000   25036.375089  -31558.046753    1047.494508 
 4520000     292.865591   -4646.269166   -5520.118840       0.000000       0.000000       0.000000   24998.035458  -31562.714053    1044.559755 
 4530000     298.735340   -4684.488753   -5575.852529       0.000000       0.000000       0.000000   24918.993671  -31567.871790    1073.025590 
 4540000     303.320095   -4634.973326   -5540.017054       0.000000       0.000000       0.000000   24852.635938  -31564.698230    1172.045238 
 4550000     288.838618   -4675.402034   -5537.236062       0.000000       0.000000       0.000000   24909.494568  -31562.385536    1115.654906 
 4560000     295.364537   -4628.085820   -5509.391827       0.000000       0.000000       0.000000   24920.747078  -31560.114509    1129.975603 
 4570000     292.646197   -4680.299353   -5553.494400       0.000000       0.000000       0.000000   24929.241139  -31562.519203    1079.783664 
 4580000     292.517183   -4618.545651   -5491.355748       0.000000       0.000000       0.000000   24967.017183  -31559.235078    1100.862147 
 4590000     307.122277   -4617.198825   -5533.587467       0.000000       0.000000       0.000000   24923.231384  -31558.508434    1101.689583 
 4600000     293.831755   -4642.277261   -5519.009767       0.000000       0.000000       0.000000   24908.928397  -31560.205066    1132.266902 
 4610000     307.970913   -4628.076481   -5546.997275       0.000000       0.000000       0.000000   24903.463404  -31564.278079    1113.817400 
 4620000     305.631089   -4531.385588   -5443.324839       0.000000       0.000000       0.000000   25028.754496  -31559.756670    1087.677334 
 4630000     300.614676   -4603.444167   -5500.415491       0.000000       0.000000       0.000000   24923.967052  -31561.763270    1137.380727 
 4640000     300.557595   -4632.913238   -5529.714243       0.000000       0.000000       0.000000   24872.926210  -31561.299607    1158.659154 
 4650000     310.262320   -4605.113636   -5530.871509       0.000000       0.000000       0.000000   24947.290792  -31561.260632    1083.098331 
 4660000     303.643615   -4638.528137   -5544.537180       0.000000       0.000000       0.000000   24908.367972  -31563.207893    1110.302740 
 4670000     297.170891   -4591.968032   -5478.663821       0.000000       0.000000       0.000000   25024.331151  -31561.114407    1058.119435 
 4680000     311.982462   -4585.817059   -5516.707477       0.000000       0.000000       0.000000   24948.202095  -31565.023592    1100.114020 
 4690000     300.585256   -4636.577876   -5533.461415       0.000000       0.000000       0.000000   24959.204405  -31561.601322    1068.935502 
 4700000     299.069423   -4587.948955   -5480.309566       0.000000       0.000000       0.000000   24918.752410  -31563.024340    1163.962363 
 4710000     316.627482   -4530.306780   -5475.056968       0.000000       0.000000       0.000000   24998.722796  -31561.126175    1087.346412 
 4720000     289.423948   -4679.275509   -5542.856038       0.000000       0.000000       0.000000   24983.115993  -31561.889020    1035.916990 
 4730000     306.313171   -4593.248520   -5507.222959       0.000000       0.000000       0.000000   24965.714770  -31565.422086    1092.484358 
 4740000     287.651437   -4682.632527   -5540.924256       0.000000       0.000000       0.000000   24949.912957  -31565.816058    1074.978845 
 4750000     295.852861   -4615.864515   -5498.627578       0.000000       0.000000       0.000000   25024.427960  -31563.248582    1040.193044 
 4760000     291.442340   -4692.456999   -5562.059989       0.000000       0.000000       0.000000   24951.881445  -31566.475302    1052.533868 
 4770000     292.360678   -4658.095225   -5530.438344       0.000000       0.000000       0.000000   24956.559197  -31565.026320    1078.028779 
 4780000     288.484122   -4706.923201   -5567.699489       0.000000       0.000000       0.000000   24921.317197  -31566.583230    1077.566543 
 4790000     292.056617   -4642.175995   -5513.611861       0.000000       0.000000       0.000000   24963.878110  -31563.374421    1085.884450 
 4800000     300.566944   -4566.854055   -5463.682956       0.000000       0.000000       0.000000   25038.996557  -31559.996406    1057.316894 
 4810000     286.816779   -4646.373167   -5502.174452       0.000000       0.000000       0.000000   24979.617661  -31560.243443    1078.451329 
 4820000     293.060912   -4641.900455   -5516.332926       0.000000       0.000000       0.000000   24921.461574  -31563.291707    1125.497207 
 4830000     304.039608   -4559.555532   -5466.746137       0.000000       0.000000       0.000000   24998.864282  -31560.163318    1094.552898 
 4840000     300.628451   -4648.281243   -5545.293666       0.000000       0.000000       0.000000   24886.756196  -31565.604945    1133.555083 
 4850000     305.899990   -4595.481687   -5508.223280       0.000000       0.000000       0.000000   24920.538908  -31557.760842    1128.998653 
 4860000     295.582990   -4627.119446   -5509.077271       0.000000       0.000000       0.000000   24966.888942  -31562.028601    1086.062389 
 4870000     300.322343   -4657.177038   -5553.276099       0.000000       0.000000       0.000000   24916.713348  -31568.241499    1098.252052 
 4880000     304.335645   -4656.846519   -5564.920436       0.000000       0.000000       0.000000   24887.444490  -31563.759119    1111.394192 
 4890000     291.441520   -4694.315847   -5563.916390       0.000000       0.000000       0.000000   24918.363340  -31565.978027    1083.698297 
 4900000     297.558196   -4653.813835   -5541.665261       0.000000       0.000000       0.000000   24978.869147  -31564.712748    1044.178340 
 4910000     294.156635   -4630.096392   -5507.798272       0.000000       0.000000       0.000000   24939.315757  -31560.625230    1113.511201 
 4920000     291.682719   -4687.683978   -5558.004209       0.000000       0.000000       0.000000   24879.627258  -31562.083800    1124.452333 
 4930000     291.997811   -4651.176831   -5522.437231       0.000000       0.000000       0.000000   24999.438648  -31567.554470    1045.678591 
 4940000     307.794990   -4532.592345   -5450.988225       0.000000       0.000000       0.000000   25025.543123  -31557.899186    1081.367838 
 4950000     296.998327   -4661.794762   -5547.975656       0.000000       0.000000       0.000000   24962.449394  -31567.383967    1056.958916 
 4960000     299.961077   -4571.842224   -5466.863344       0.000000       0.000000       0.000000   25112.684834  -31565.330186     985.782007 
 4970000     288.777903   -4675.326994   -5536.979861       0.000000       0.000000       0.000000   24927.554691  -31562.668266    1098.133715 
 4980000     294.061006   -4668.302093   -5545.718637       0.000000       0.000000       0.000000   24869.809380  -31560.885492    1145.357475 
 4990000     303.943640   -4598.866954   -5505.771209       0.000000       0.000000       0.000000   24949.711890  -31561.788238    1106.305139 
 5000000     316.041955   -4545.330075   -5488.333171       0.000000       0.000000       0.000000   24993.213264  -31564.692212    1083.145777 
Loop time of 9850.18 on 8 procs for 5000000 steps with 1503 atoms

Performance: 43.857 ns/day, 0.547 hours/ns, 507.605 timesteps/s
99.2% CPU use with 8 MPI tasks x 1 OpenMP threads

MPI task timing breakdown:
Section |  min time  |  avg time  |  max time  |%varavg| %total
---------------------------------------------------------------
Pair    | 4874.3     | 4888.4     | 4902.5     |  15.1 | 49.63
Bond    | 1.5189     | 1.9249     | 2.5927     |  22.8 |  0.02
Kspace  | 2643.7     | 2659.9     | 2675       |  22.8 | 27.00
Neigh   | 352.4      | 352.66     | 352.93     |   0.9 |  3.58
Comm    | 457.77     | 481.55     | 500.38     |  56.1 |  4.89
Output  | 2.0384     | 2.4664     | 2.7158     |  12.6 |  0.03
Modify  | 1343.5     | 1403.1     | 1457.2     |  81.9 | 14.24
Other   |            | 60.13      |            |       |  0.61

Nlocal:    187.875 ave 197 max 182 min
Histogram: 2 1 1 1 1 0 0 0 0 2
Nghost:    4565.5 ave 4633 max 4491 min
Histogram: 1 1 1 1 0 0 0 1 2 1
Neighs:    66696.1 ave 69504 max 64081 min
Histogram: 1 1 2 0 0 0 1 1 1 1

Total # of neighbors = 533569
Ave neighs/atom = 355.003
Ave special neighs/atom = 2
Neighbor list builds = 216980
Dangerous builds = 0
Total wall time: 3:17:09
