LAMMPS (3 Mar 2020)
  using 1 OpenMP thread(s) per MPI task
#CXE2
variable    lambda1  index   0.00922
variable    lambda2  index   0.04794
variable    lambda3  index   0.11505
variable    lambda4  index   0.20634
variable    lambda5  index   0.31608
variable    lambda6  index   0.43738
variable    lambda7  index   0.56262
variable    lambda8  index   0.68392
variable    lambda9  index   0.79366
variable    lambda10  index   0.88495
variable    lambda11  index   0.95206
variable    lambda12  index   0.99078

variable    lambda00  equal   ${lambda2}
variable    lambda00  equal   0.04794
variable    q10 equal -0.8476*v_lambda00
variable    q20 equal  0.4238*v_lambda00
variable    lambda01  equal   (v_lambda00-0.002)
variable    q11 equal -0.8476*v_lambda01
variable    q21 equal  0.4238*v_lambda01
variable    lambda02  equal   (v_lambda00+0.002)
variable    q12 equal -0.8476*v_lambda02
variable    q22 equal  0.4238*v_lambda02

atom_style	full
units		real
dimension	3
boundary	p p p
bond_style     	harmonic
angle_style    	harmonic

pair_style      hybrid     lj/cut/coul/long 10.0     lj/cut/coul/long/soft 1 0.5 10.0 10.0
pair_modify     shift yes mix geometric

kspace_style   	pppm 1e-5

read_data   lmp.data
  orthogonal box = (0 0 0) to (24 24 24)
  2 by 2 by 2 MPI processor grid
  reading atoms ...
  1503 atoms
  scanning bonds ...
  2 = max bonds/atom
  scanning angles ...
  1 = max angles/atom
  reading bonds ...
  1002 bonds
  reading angles ...
  501 angles
  2 = max # of 1-2 neighbors
  1 = max # of 1-3 neighbors
  1 = max # of 1-4 neighbors
  2 = max # of special neighbors
  special bonds CPU = 0.00142235 secs
  read_data CPU = 0.00733611 secs
include     lmp.setting
# ~~~~~BONDS~~~~~
# bond_coeff type k(kcal/mol/ang**2)  r0 (ang)
bond_coeff  1  600.000  1.000
bond_coeff  2  600.000  1.000

# ~~~~~ANGLES~~~~~
# angle_coeff type k(kcal/mol/rad**2)  theta_0 (degrees)
angle_coeff  1   75.000 109.470
angle_coeff  2   75.000 109.470

set         type 3 charge ${q10}
set         type 3 charge -0.040633944
  1 settings made for charge
set         type 4 charge ${q20}
set         type 4 charge 0.020316972
  2 settings made for charge

pair_coeff  1   1   lj/cut/coul/long   0.1553500  3.16600
pair_coeff  2   2   lj/cut/coul/long   0.0000000  1.00000
pair_coeff  3   3   lj/cut/coul/long   0.1553500  3.16600
pair_coeff  4   4   lj/cut/coul/long   0.0000000  1.00000

pair_coeff  1   3   lj/cut/coul/long/soft  0.1553500  3.16600  ${lambda00}
pair_coeff  1   3   lj/cut/coul/long/soft  0.1553500  3.16600  0.04794
pair_coeff  2   3   lj/cut/coul/long/soft  0.0000000  1.00000  ${lambda00}
pair_coeff  2   3   lj/cut/coul/long/soft  0.0000000  1.00000  0.04794

pair_coeff  1   4   lj/cut/coul/long/soft  0.0000000  1.00000  ${lambda00}
pair_coeff  1   4   lj/cut/coul/long/soft  0.0000000  1.00000  0.04794
pair_coeff  2   4   lj/cut/coul/long/soft  0.0000000  1.00000  ${lambda00}
pair_coeff  2   4   lj/cut/coul/long/soft  0.0000000  1.00000  0.04794

fix 		fShakeSPCE all shake 0.0001 20 0 b 1 2 a 1 2
  0 = # of size 2 clusters
  0 = # of size 3 clusters
  0 = # of size 4 clusters
  501 = # of frozen angles
  find clusters CPU = 0.0104489 secs

timestep    1.0
run_style   verlet

fix         fxnpt all npt temp 300.0 300.0 100.0 iso 1.0 1.0 1000

thermo_style    custom step etotal pe ecoul elong evdwl
thermo_modify   format float %20.12f
thermo		1

rerun ${lambda00}.lammpstrj dump x y z box yes
rerun 0.04794.lammpstrj dump x y z box yes
PPPM initialization ...
  using 12-bit tables for long-range coulomb (src/kspace.cpp:332)
  G vector (1/distance) = 0.315108
  grid = 24 24 24
  stencil order = 5
  estimated absolute RMS force accuracy = 0.00171043
  estimated relative force accuracy = 5.15091e-06
  using double precision MKL FFT
  3d grid and FFT values/proc = 6859 1728
Neighbor list info ...
  update every 1 steps, delay 10 steps, check yes
  max neighbors/atom: 2000, page size: 100000
  master list distance cutoff = 12
  ghost atom cutoff = 12
  binsize = 6, bins = 4 4 4
  3 neighbor lists, perpetual/occasional/extra = 3 0 0
  (1) pair lj/cut/coul/long, perpetual, skip from (3)
      attributes: half, newton on
      pair build: skip
      stencil: none
      bin: none
  (2) pair lj/cut/coul/long/soft, perpetual, skip from (3)
      attributes: half, newton on
      pair build: skip
      stencil: none
      bin: none
  (3) neighbor class addition, perpetual
      attributes: half, newton on
      pair build: half/bin/newton
      stencil: half/bin/3d/newton
      bin: standard
Per MPI rank memory allocation (min/avg/max) = 9.72 | 9.729 | 9.733 Mbytes
Step TotEng PotEng E_coul E_long E_vdwl 
       0   -5564.358588039984   -5564.358588039984   25135.947845563260  -31779.423438845952    1079.117005242708 
    1000   -5560.214286877526   -5560.214286877526   25154.187555024902  -31780.788939186386    1066.387097283956 
    2000   -5526.150337405572   -5526.150337405572   25088.490215228558  -31782.249213997206    1167.608661363076 
    3000   -5473.547278343318   -5473.547278343318   25253.730305486184  -31778.578883892620    1051.301300063119 
    4000   -5505.353418752969   -5505.353418752969   25223.033033872081  -31782.196774617685    1053.810321992634 
    5000   -5553.355016083438   -5553.355016083438   25155.603153376818  -31778.566016025310    1069.607846565052 
    6000   -5443.282233257491   -5443.282233257491   25231.149240656152  -31781.648273072115    1107.216799158474 
    7000   -5529.714784620995   -5529.714784620995   25203.251694671486  -31781.811914030452    1048.845434737977 
    8000   -5521.376276954576   -5521.376276954576   25101.343620019958  -31778.267195132157    1155.547298157619 
    9000   -5513.969984519408   -5513.969984519408   25104.628269755976  -31780.659549921555    1162.061295646175 
   10000   -5514.935411178256   -5514.935411178256   25171.385773056470  -31780.983669588397    1094.662485353670 
   11000   -5470.560198490890   -5470.560198490890   25242.427637378823  -31777.381053157762    1064.393217288049 
   12000   -5519.936418165606   -5519.936418165606   25133.764114802536  -31778.365732634837    1124.665199666692 
   13000   -5510.590741661905   -5510.590741661905   25230.308789409646  -31784.897318947256    1043.997787875709 
   14000   -5513.855302893597   -5513.855302893597   25176.996449845290  -31780.206139557999    1089.354386819111 
   15000   -5542.864713569492   -5542.864713569492   25149.406997768056  -31778.457526436679    1086.185815099128 
   16000   -5513.383974467080   -5513.383974467080   25168.726459775633  -31778.574244258063    1096.463810015346 
   17000   -5528.894265025559   -5528.894265025559   25152.846674656867  -31780.563720176775    1098.822780494343 
   18000   -5517.832799464588   -5517.832799464588   25201.374460856539  -31780.698548977285    1061.491288656153 
   19000   -5501.451336923692   -5501.451336923692   25164.451425755360  -31777.655958706375    1111.753196027324 
   20000   -5506.125345711036   -5506.125345711036   25144.414215601639  -31783.144740696982    1132.605179384302 
   21000   -5493.492228539617   -5493.492228539617   25122.627864824430  -31777.259473631653    1161.139380267605 
   22000   -5547.552181212923   -5547.552181212923   25101.450325272188  -31780.436881899946    1131.434375414835 
   23000   -5509.142604202050   -5509.142604202050   25255.310511140327  -31781.946942689006    1017.493827346636 
   24000   -5567.187463190479   -5567.187463190479   25070.505685265449  -31777.218285824325    1139.525137368398 
   25000   -5586.587403939579   -5586.587403939579   25052.305076614008  -31778.694506341071    1139.802025787486 
   26000   -5481.652011791663   -5481.652011791663   25237.192708550181  -31780.152230357777    1061.307510015929 
   27000   -5511.834065905525   -5511.834065905525   25268.488915858856  -31778.263820780754     997.940839016373 
   28000   -5531.112695353426   -5531.112695353426   25156.229985087044  -31777.251360525708    1089.908680085240 
   29000   -5517.142470421884   -5517.142470421884   25170.832483840048  -31777.584244864152    1089.609290602219 
   30000   -5457.686589311474   -5457.686589311474   25299.355529806453  -31779.663136304709    1022.621017186786 
   31000   -5516.726449026646   -5516.726449026646   25138.398860686273  -31776.970452780355    1121.845143067433 
   32000   -5550.177580471634   -5550.177580471634   25172.993199124219  -31780.205739954057    1057.034960358203 
   33000   -5534.415721549580   -5534.415721549580   25112.441891785093  -31777.929300459356    1131.071687124680 
   34000   -5548.739541582941   -5548.739541582941   25089.298042156093  -31777.201717278960    1139.164133539924 
   35000   -5506.390455949684   -5506.390455949684   25136.784645973770  -31776.050915128984    1132.875813205534 
   36000   -5482.385975564845   -5482.385975564845   25235.983939355399  -31773.362387411857    1054.992472491612 
   37000   -5491.968647396265   -5491.968647396265   25139.137629859528  -31778.706344449631    1147.600067193836 
   38000   -5557.393115014507   -5557.393115014507   25109.907931288708  -31775.856601132189    1108.555554828977 
   39000   -5565.498023184369   -5565.498023184369   25187.741636011895  -31778.791799518003    1025.552140321735 
   40000   -5484.970385439319   -5484.970385439319   25252.700375301414  -31775.987811964122    1038.317051223386 
   41000   -5514.730643552000   -5514.730643552000   25161.442542947458  -31778.633830533247    1102.460644033792 
   42000   -5523.036298309853   -5523.036298309853   25144.253250314065  -31774.639625438027    1107.350076814112 
   43000   -5561.512426951227   -5561.512426951227   25078.357439765456  -31779.202512872635    1139.332646155955 
   44000   -5506.655659719167   -5506.655659719167   25130.911732747838  -31776.640822810532    1139.073430343525 
   45000   -5597.048227425446   -5597.048227425446   25092.707503018075  -31783.398943418892    1093.643212975374 
   46000   -5519.630856180731   -5519.630856180731   25197.548733765685  -31776.383617861444    1059.204027915026 
   47000   -5487.887290168117   -5487.887290168117   25218.692529731350  -31774.584798017488    1068.004978118019 
   48000   -5506.417670138228   -5506.417670138228   25180.755289010638  -31775.094233273736    1087.921274124867 
   49000   -5499.096503047433   -5499.096503047433   25212.768184779590  -31782.122397250001    1070.257709422985 
   50000   -5442.136554799195   -5442.136554799195   25217.394824333162  -31780.119847315931    1120.588468183573 
   51000   -5506.934358145016   -5506.934358145016   25208.162838682278  -31781.451237241548    1066.354040414252 
   52000   -5491.253569849650   -5491.253569849650   25203.070876867416  -31782.033740013263    1087.709293296201 
   53000   -5507.918925591010   -5507.918925591010   25113.225160633690  -31779.398999673867    1158.254913449160 
   54000   -5528.229324362565   -5528.229324362565   25171.380807522968  -31782.156052840448    1082.545920954917 
   55000   -5537.010334599061   -5537.010334599061   25108.732378105062  -31777.395303232071    1131.652590527947 
   56000   -5535.865107769263   -5535.865107769263   25117.544449653877  -31780.722439195382    1127.312881772240 
   57000   -5508.745147746726   -5508.745147746726   25178.708861625615  -31781.335589335420    1093.881579963074 
   58000   -5524.229681991692   -5524.229681991692   25153.830849101028  -31776.894013947905    1098.833482855187 
   59000   -5556.346456489380   -5556.346456489380   25117.978282311964  -31783.527776154071    1109.203037352732 
   60000   -5579.266014129349   -5579.266014129349   25112.322659845973  -31784.148078369093    1092.559404393775 
   61000   -5494.874439953102   -5494.874439953102   25184.356460997849  -31779.533635815194    1100.302734864243 
   62000   -5519.626227490069   -5519.626227490069   25131.092892942015  -31782.809068727478    1132.089948295393 
   63000   -5463.988947198835   -5463.988947198835   25240.825841810074  -31781.838107103995    1077.023318095087 
   64000   -5556.095428034598   -5556.095428034598   25095.951780127631  -31781.043987385747    1128.996779223518 
   65000   -5490.676058050583   -5490.676058050583   25145.928227191183  -31780.047456696695    1143.443171454927 
   66000   -5552.706521705273   -5552.706521705273   25184.863127752393  -31781.439293526906    1043.869644069239 
   67000   -5520.886711725801   -5520.886711725801   25143.051940729303  -31779.037387897522    1115.098735442416 
   68000   -5569.682918643455   -5569.682918643455   25086.351699030460  -31779.994103628356    1123.959485954443 
   69000   -5583.984184815574   -5583.984184815574   25078.380286657903  -31778.974990768966    1116.610519295486 
   70000   -5511.861804624059   -5511.861804624059   25250.995444292192  -31779.957320851954    1017.100071935700 
   71000   -5518.928197421337   -5518.928197421337   25209.609498116170  -31778.090046911595    1049.552351374085 
   72000   -5475.687724698080   -5475.687724698080   25267.520802182502  -31775.459251258839    1032.250724378257 
   73000   -5532.377601054675   -5532.377601054675   25158.105840421533  -31781.058282658621    1090.574841182421 
   74000   -5534.996903363943   -5534.996903363943   25146.553599032261  -31779.361035683760    1097.810533287554 
   75000   -5576.974451963048   -5576.974451963048   25075.648056667931  -31785.199109172114    1132.576600541137 
   76000   -5495.552766225319   -5495.552766225319   25171.346161441226  -31774.722814940462    1107.823887273914 
   77000   -5462.108478359762   -5462.108478359762   25242.412930205752  -31778.820233247905    1074.298824682399 
   78000   -5462.246716378475   -5462.246716378475   25233.269949233567  -31780.417792567696    1084.901126955654 
   79000   -5503.855755854802   -5503.855755854802   25133.291971322255  -31780.810137248005    1143.662410070945 
   80000   -5519.171377020601   -5519.171377020601   25191.977990974588  -31779.503839193396    1068.354471198207 
   81000   -5557.391461731764   -5557.391461731764   25098.344632388085  -31780.725254789941    1124.989160670092 
   82000   -5500.925544074606   -5500.925544074606   25200.839947338820  -31778.689250779651    1076.923759366228 
   83000   -5452.704416641329   -5452.704416641329   25290.230406751172  -31778.312143411928    1035.377320019428 
   84000   -5476.544345980663   -5476.544345980663   25283.777060913279  -31782.399571694645    1022.078164800705 
   85000   -5476.143792875064   -5476.143792875064   25212.579757719923  -31779.915447043008    1091.191896448018 
   86000   -5470.103925506501   -5470.103925506501   25169.227466296557  -31780.776339918277    1141.444948115216 
   87000   -5555.757501518034   -5555.757501518034   25007.995748351306  -31780.709535567770    1216.956285698429 
   88000   -5522.518349836006   -5522.518349836006   25142.801078191220  -31778.462477819288    1113.143049792060 
   89000   -5526.763572250369   -5526.763572250369   25160.248898505808  -31779.372218767239    1092.359748011059 
   90000   -5492.053533769955   -5492.053533769955   25270.197654896900  -31776.824784526994    1014.573595860137 
   91000   -5489.108020680960   -5489.108020680960   25258.689819685496  -31776.325512988627    1028.527672622170 
   92000   -5475.529797833340   -5475.529797833340   25292.708856935227  -31778.571034635057    1010.332379866487 
   93000   -5516.037062998061   -5516.037062998061   25193.757304884974  -31781.090063085248    1071.295695202213 
   94000   -5542.928758698072   -5542.928758698072   25136.279955511909  -31781.033500471509    1101.824786261530 
   95000   -5546.978770994807   -5546.978770994807   25124.016949186429  -31779.810825242290    1108.815105061059 
   96000   -5594.005356492024   -5594.005356492024   25140.256427211156  -31781.181861354984    1046.920077651804 
   97000   -5530.898389490845   -5530.898389490845   25165.050620666614  -31779.598136120640    1083.649125963183 
   98000   -5489.051242598023   -5489.051242598023   25170.402165978077  -31777.380816966208    1117.927408390105 
   99000   -5498.373829222321   -5498.373829222321   25158.604352929342  -31781.743499021359    1124.765316869695 
  100000   -5467.390137000410   -5467.390137000410   25254.743168882847  -31781.144823559145    1059.011517675890 
  101000   -5524.421780477620   -5524.421780477620   25208.127574145445  -31781.628723029236    1049.079368406175 
  102000   -5478.908243718233   -5478.908243718233   25252.835205600422  -31779.879209911614    1048.135760592957 
  103000   -5472.139313241747   -5472.139313241747   25230.782565376168  -31779.081651079967    1076.159772462046 
  104000   -5529.364795550315   -5529.364795550315   25154.838580282532  -31775.046606641870    1090.843230809020 
  105000   -5492.967637488484   -5492.967637488484   25232.430567595708  -31781.762575619727    1056.364370535533 
  106000   -5455.822989725311   -5455.822989725311   25259.196066694203  -31774.698828594064    1059.679772174548 
  107000   -5513.108878722414   -5513.108878722414   25262.013390945951  -31775.779862783929    1000.657593115566 
  108000   -5526.095151097961   -5526.095151097961   25163.732235324707  -31778.496852725311    1088.669466302641 
  109000   -5590.193166671248   -5590.193166671248   25107.970420744583  -31783.450297796786    1085.286710380952 
  110000   -5542.855206330518   -5542.855206330518   25155.931864354203  -31784.347951933261    1085.560881248535 
  111000   -5491.634419183625   -5491.634419183625   25240.506104775181  -31779.276122810141    1047.135598851337 
  112000   -5494.486373642059   -5494.486373642059   25155.002315950976  -31780.458289783826    1130.969600190786 
  113000   -5494.268196842811   -5494.268196842811   25156.100880582890  -31779.980250010798    1129.611172585099 
  114000   -5526.405273842520   -5526.405273842520   25137.205067877123  -31778.901591164791    1115.291249445154 
  115000   -5495.167163787333   -5495.167163787333   25213.588389765559  -31780.077474058158    1071.321920505266 
  116000   -5512.597186585484   -5512.597186585484   25173.042467236581  -31779.190574473578    1093.550920651512 
  117000   -5472.031565727113   -5472.031565727113   25163.355190953829  -31780.481977883370    1145.095221202426 
  118000   -5549.412299116382   -5549.412299116382   25118.754685187163  -31782.861013737034    1114.694029433490 
  119000   -5553.361988517208   -5553.361988517208   25190.884888449873  -31780.706175118044    1036.459298150962 
  120000   -5513.945630737930   -5513.945630737930   25137.505007124713  -31780.556705622217    1129.106067759575 
  121000   -5519.191603789059   -5519.191603789059   25135.718759548916  -31784.374344971879    1129.463981633904 
  122000   -5499.070733427692   -5499.070733427692   25178.801882838605  -31778.669729082154    1100.797112815862 
  123000   -5522.763933442475   -5522.763933442475   25143.014234531081  -31778.735755953654    1112.957587980097 
  124000   -5553.789543627779   -5553.789543627779   25138.389637605676  -31781.474527893057    1089.295346659598 
  125000   -5600.400725141510   -5600.400725141510   25107.891103460657  -31782.802086922777    1074.510258320607 
  126000   -5481.846906038216   -5481.846906038216   25182.204092997723  -31776.968491664851    1112.917492628913 
  127000   -5576.706071065077   -5576.706071065077   25035.528380846441  -31776.245914593532    1164.011462682017 
  128000   -5522.078477218194   -5522.078477218194   25120.794631041907  -31779.806247266966    1136.933139006864 
  129000   -5517.680676043907   -5517.680676043907   25111.768807744655  -31775.684645266530    1146.235161477970 
  130000   -5494.665345709178   -5494.665345709178   25209.698535979966  -31781.201686126762    1076.837804437617 
  131000   -5544.502208243019   -5544.502208243019   25146.105097410415  -31777.781980372711    1087.174674719277 
  132000   -5483.839436676863   -5483.839436676863   25200.021623118802  -31776.141748130554    1092.280688334890 
  133000   -5554.727514070633   -5554.727514070633   25064.512780856843  -31777.188410512430    1157.948115584955 
  134000   -5521.485121906630   -5521.485121906630   25082.134231968706  -31778.396354763951    1174.777000888617 
  135000   -5479.671210646484   -5479.671210646484   25219.779987781076  -31776.199018561361    1076.747820133797 
  136000   -5547.848264069155   -5547.848264069155   25052.042074529912  -31781.488293224615    1181.597954625551 
  137000   -5509.821646139811   -5509.821646139811   25122.993796275478  -31778.636335171050    1145.820892755760 
  138000   -5553.741887826964   -5553.741887826964   25079.841530957132  -31779.008416510027    1145.424997725931 
  139000   -5519.359171039363   -5519.359171039363   25075.611535783330  -31779.962420855682    1184.991714032990 
  140000   -5573.024826556211   -5573.024826556211   25043.729023487645  -31778.389851567903    1161.636001524051 
  141000   -5521.349111988668   -5521.349111988668   25135.067721878975  -31778.373468968832    1121.956635101188 
  142000   -5537.095421659043   -5537.095421659043   25118.361111222410  -31784.534304302488    1129.077771421029 
  143000   -5541.935212537814   -5541.935212537814   25122.358053562406  -31782.039281704860    1117.746015604644 
  144000   -5557.958068865009   -5557.958068865009   25098.124140750249  -31782.202570311380    1126.120360696122 
  145000   -5454.732589265910   -5454.732589265910   25293.121181596282  -31776.350932916026    1028.497162053836 
  146000   -5537.333918453875   -5537.333918453875   25182.198841818488  -31780.529308205354    1060.996547932992 
  147000   -5531.722428136982   -5531.722428136982   25168.432472552606  -31779.437032771795    1079.282132082208 
  148000   -5582.909234326868   -5582.909234326868   25059.784283475023  -31780.555902449429    1137.862384647536 
  149000   -5513.621036327757   -5513.621036327757   25191.580174788302  -31783.947604349894    1078.746393233838 
  150000   -5514.561250084069   -5514.561250084069   25136.619285052941  -31782.053885989710    1130.873350852698 
  151000   -5562.211764958334   -5562.211764958334   25156.262692215510  -31780.908890164032    1062.434432990189 
  152000   -5535.315353892613   -5535.315353892613   25107.533213181854  -31777.444706384980    1134.596139310516 
  153000   -5511.021196280344   -5511.021196280344   25137.458401806558  -31777.395761879110    1128.916163792212 
  154000   -5511.275672036008   -5511.275672036008   25151.243719029557  -31773.179019417930    1110.659628352364 
  155000   -5605.052121909303   -5605.052121909303   25116.499259086369  -31782.891942847717    1061.340561852045 
  156000   -5526.784830033208   -5526.784830033208   25213.158913326515  -31779.724344332539    1039.780600972817 
  157000   -5565.499965198742   -5565.499965198742   25068.068116159611  -31783.333827945506    1149.765746587150 
  158000   -5490.452061599521   -5490.452061599521   25162.367462599927  -31776.065005498262    1123.245481298810 
  159000   -5551.602211366648   -5551.602211366648   25136.856441284330  -31780.775673016222    1092.317020365245 
  160000   -5527.935959158247   -5527.935959158247   25121.412453670146  -31779.294369608040    1129.945956779646 
  161000   -5522.047233924350   -5522.047233924350   25188.967020700547  -31780.043277990859    1069.029023365962 
  162000   -5511.781214512317   -5511.781214512317   25143.342821110004  -31779.025911212204    1123.901875589881 
  163000   -5538.413807572604   -5538.413807572604   25129.001875895527  -31780.462187500158    1113.046504032022 
  164000   -5567.969636418049   -5567.969636418049   25142.377723012643  -31781.897746499810    1071.550387069114 
  165000   -5575.646716118972   -5575.646716118972   25016.346767406460  -31779.108121735357    1187.114638209924 
  166000   -5522.262684772508   -5522.262684772508   25211.938108196489  -31776.421751800779    1042.220958831783 
  167000   -5556.836080547866   -5556.836080547866   25089.028396274291  -31779.426732420809    1133.562255598648 
  168000   -5598.326816662855   -5598.326816662855   25020.777561331430  -31777.439425298653    1158.335047304372 
  169000   -5482.754264888430   -5482.754264888430   25211.613343748646  -31779.685678162903    1085.318069525829 
  170000   -5517.747413098201   -5517.747413098201   25189.186894493720  -31774.899866227806    1067.965558635884 
  171000   -5469.004345879985   -5469.004345879985   25211.963017777234  -31776.575535360873    1095.608171703657 
  172000   -5504.064010632712   -5504.064010632712   25262.637562921333  -31782.057807184701    1015.356233630657 
  173000   -5522.923737612015   -5522.923737612015   25186.989124850646  -31783.388743627580    1073.475881164921 
  174000   -5535.828245143428   -5535.828245143428   25164.775384091587  -31779.576506278856    1078.972877043836 
  175000   -5475.802221519953   -5475.802221519953   25206.594242811563  -31778.980648431436    1096.584184099921 
  176000   -5544.999438486953   -5544.999438486953   25183.721265303855  -31780.071301364867    1051.350597574060 
  177000   -5536.893480919513   -5536.893480919513   25205.013970886088  -31781.830734771393    1039.923282965789 
  178000   -5484.704262491057   -5484.704262491057   25268.022743547073  -31778.068063887735    1025.341057849604 
  179000   -5459.675750878694   -5459.675750878694   25344.004786179139  -31781.781082593774     978.100545535939 
  180000   -5553.564151351089   -5553.564151351089   25138.690528102888  -31778.073581078010    1085.818901624034 
  181000   -5550.837285774778   -5550.837285774778   25172.839395519906  -31777.260926329407    1053.584245034729 
  182000   -5475.683419880643   -5475.683419880643   25260.393547287018  -31781.759795752387    1045.682828584728 
  183000   -5515.449132362814   -5515.449132362814   25154.095740388093  -31781.146885663195    1111.602012912287 
  184000   -5497.356520383910   -5497.356520383910   25256.404402001685  -31777.471157072334    1023.710234686739 
  185000   -5553.230753489854   -5553.230753489854   25072.799689535321  -31779.671370280466    1153.640927255294 
  186000   -5531.267313926106   -5531.267313926106   25121.600656896888  -31779.571755286288    1126.703784463292 
  187000   -5556.055355820121   -5556.055355820121   25088.242601260579  -31778.606105100956    1134.308148020256 
  188000   -5541.745736624187   -5541.745736624187   25170.071277868778  -31781.550052000406    1069.733037507441 
  189000   -5471.178563362446   -5471.178563362446   25222.228471708928  -31776.620348585209    1083.213313513839 
  190000   -5498.335605085504   -5498.335605085504   25165.803886797701  -31781.143499154419    1117.004007271215 
  191000   -5489.813751510384   -5489.813751510384   25171.747548738225  -31776.028903009090    1114.467602760478 
  192000   -5585.324407238732   -5585.324407238732   25031.878656654771  -31784.483872088844    1167.280808195340 
  193000   -5552.260672900185   -5552.260672900185   25147.722049760290  -31780.041174855371    1080.058452194902 
  194000   -5518.280593285945   -5518.280593285945   25145.735591833283  -31781.694335621090    1117.678150501862 
  195000   -5587.234540380407   -5587.234540380407   25086.464358771664  -31783.045529929645    1109.346630777575 
  196000   -5545.936965027438   -5545.936965027438   25082.684650090603  -31782.772322900793    1154.150707782750 
  197000   -5528.350902678936   -5528.350902678936   25191.659089764511  -31777.794005440559    1057.784012997111 
  198000   -5520.546061616158   -5520.546061616158   25168.976691682732  -31778.566246301270    1089.043493002383 
  199000   -5514.830411482180   -5514.830411482180   25132.226337625372  -31777.413228131423    1130.356479023867 
  200000   -5511.965732805536   -5511.965732805536   25198.556883996862  -31783.524337690149    1073.001720887749 
  201000   -5520.944448551763   -5520.944448551763   25091.402915602928  -31782.818024181055    1170.470660026367 
  202000   -5476.805742461140   -5476.805742461140   25215.954003397150  -31781.716982584177    1088.957236725882 
  203000   -5492.375356671073   -5492.375356671073   25242.366647545714  -31779.638012856733    1044.896008639951 
  204000   -5475.880780136875   -5475.880780136875   25275.326470133361  -31779.672702205506    1028.465451935274 
  205000   -5463.357415129281   -5463.357415129281   25271.526962759035  -31779.813207232321    1044.928829344002 
  206000   -5522.047807117007   -5522.047807117007   25193.697066641307  -31778.178756515230    1062.433882756918 
  207000   -5537.391825832154   -5537.391825832154   25141.571962279198  -31779.404455571297    1100.440667459945 
  208000   -5494.599520161308   -5494.599520161308   25225.731632712406  -31774.841159741685    1054.510006867972 
  209000   -5540.331528414568   -5540.331528414568   25171.057914622252  -31780.368899219287    1068.979456182469 
  210000   -5554.510443129890   -5554.510443129890   25049.013543293739  -31780.069311467596    1176.545325043963 
  211000   -5540.484605180165   -5540.484605180165   25135.145218092228  -31781.145026648446    1105.515203376055 
  212000   -5587.109529057645   -5587.109529057645   25092.674394080361  -31783.138115878759    1103.354192740751 
  213000   -5530.765077190979   -5530.765077190979   25130.937054955484  -31780.656914417137    1118.954782270673 
  214000   -5560.527949559510   -5560.527949559510   25135.891324992757  -31780.598211304256    1084.178936751988 
  215000   -5569.852642681406   -5569.852642681406   25092.937872047089  -31779.725371278142    1116.934856549647 
  216000   -5568.258634652873   -5568.258634652873   25079.196796416771  -31781.703285853971    1134.247854784324 
  217000   -5541.939699376922   -5541.939699376922   25184.126073106228  -31779.381730030491    1053.315957547340 
  218000   -5535.853562277385   -5535.853562277385   25148.518175739209  -31780.024650097581    1095.652912080988 
  219000   -5560.811866252050   -5560.811866252050   25159.487770379383  -31779.923741254479    1059.624104623047 
  220000   -5525.561844710923   -5525.561844710923   25186.533254029375  -31782.465500615865    1070.370401875567 
  221000   -5577.802892036703   -5577.802892036703   25057.926627103960  -31779.454809150386    1143.725290009722 
  222000   -5545.728441404452   -5545.728441404452   25087.851527215513  -31778.301249276457    1144.721280656495 
  223000   -5581.874579604966   -5581.874579604966   25078.435827609042  -31778.250941957911    1117.940534743904 
  224000   -5558.768350900405   -5558.768350900405   25142.680785760971  -31781.353976412520    1079.904839751144 
  225000   -5582.188626716699   -5582.188626716699   25156.016843130317  -31786.328543303585    1048.123073456570 
  226000   -5533.837076587770   -5533.837076587770   25181.363676966022  -31782.927493776224    1067.726740222431 
  227000   -5592.872098761749   -5592.872098761749   25067.281678021267  -31778.134091362306    1117.980314579289 
  228000   -5521.143076134584   -5521.143076134584   25107.135899049768  -31778.917477847885    1150.638502663535 
  229000   -5536.698551280213   -5536.698551280213   25186.772540613434  -31776.755435295592    1053.284343401943 
  230000   -5558.482093873623   -5558.482093873623   25062.048516910410  -31779.315507233965    1158.784896449932 
  231000   -5572.275829151997   -5572.275829151997   25136.609339806968  -31781.578645333244    1072.693476374282 
  232000   -5497.743030903232   -5497.743030903232   25179.296172856739  -31779.810227857950    1102.771024097982 
  233000   -5398.500478257123   -5398.500478257123   25351.510074487087  -31775.189736645003    1025.179183900792 
  234000   -5514.322603496992   -5514.322603496992   25172.485230090715  -31783.029784358499    1096.221950770796 
  235000   -5525.299231509554   -5525.299231509554   25163.110709268214  -31780.259791696757    1091.849850918990 
  236000   -5527.289386251752   -5527.289386251752   25181.194909424692  -31781.117514890742    1072.633219214299 
  237000   -5559.937875789252   -5559.937875789252   25105.428116669827  -31780.388442740248    1115.022450281167 
  238000   -5493.713576673679   -5493.713576673679   25154.538666305729  -31779.433671484952    1131.181428505541 
  239000   -5507.389061636542   -5507.389061636542   25241.440419680235  -31779.202330204778    1030.372848888005 
  240000   -5522.404843061544   -5522.404843061544   25140.274884617495  -31780.169017490261    1117.489289811222 
  241000   -5479.676797755183   -5479.676797755183   25183.489709696209  -31783.481037679241    1120.314530227857 
  242000   -5549.133768047999   -5549.133768047999   25146.379421168385  -31779.382876318778    1083.869687102395 
  243000   -5528.601660362641   -5528.601660362641   25124.153450021808  -31783.914078038124    1131.158967653675 
  244000   -5518.889939032160   -5518.889939032160   25139.705375288082  -31782.563711260897    1123.968396940655 
  245000   -5533.898170763718   -5533.898170763718   25181.952371200594  -31779.070813788385    1063.220271824072 
  246000   -5570.011459497353   -5570.011459497353   25057.328164886130  -31781.146126033531    1153.806501650049 
  247000   -5494.881515579353   -5494.881515579353   25151.239105792971  -31776.718857045948    1130.598235673626 
  248000   -5492.509143428117   -5492.509143428117   25211.498222811337  -31777.103458482594    1073.096092243141 
  249000   -5513.478300494920   -5513.478300494920   25213.394025685215  -31776.852275246489    1049.979949066351 
  250000   -5471.004259240071   -5471.004259240071   25271.245941099256  -31777.561928150244    1035.311727810919 
  251000   -5501.589403633428   -5501.589403633428   25142.850348222531  -31780.377146391489    1135.937394535531 
  252000   -5482.992219800548   -5482.992219800548   25207.730417922296  -31778.138898413526    1087.416260690680 
  253000   -5549.579714612792   -5549.579714612792   25127.641252706497  -31778.829020901718    1101.608053582433 
  254000   -5557.610238642872   -5557.610238642872   25108.633086824608  -31782.342734994501    1116.099409527023 
  255000   -5530.181717398282   -5530.181717398282   25145.221462853428  -31780.954126497563    1105.550946245854 
  256000   -5519.792685894332   -5519.792685894332   25191.646245530483  -31781.060011299149    1069.621079874335 
  257000   -5540.332411569663   -5540.332411569663   25129.623247008771  -31778.373395462386    1108.417736883953 
  258000   -5444.824031305547   -5444.824031305547   25324.396840211695  -31780.561208206072    1011.340336688838 
  259000   -5506.207116496847   -5506.207116496847   25198.538249829664  -31781.837899727285    1077.092533400775 
  260000   -5470.205047911917   -5470.205047911917   25212.873439373383  -31772.338501704049    1089.260014418749 
  261000   -5552.400198486783   -5552.400198486783   25155.724161498227  -31781.144449244191    1073.020089259184 
  262000   -5477.687480537676   -5477.687480537676   25312.034259990323  -31781.525160521782     991.803419993782 
  263000   -5517.739102477328   -5517.739102477328   25257.084510307333  -31786.677437306302    1011.853824521640 
  264000   -5494.421500391207   -5494.421500391207   25228.247407945335  -31780.053778992402    1057.384870655860 
  265000   -5509.881083198790   -5509.881083198790   25202.471493615118  -31777.439455955755    1065.086879141846 
  266000   -5534.092079813257   -5534.092079813257   25112.330717745936  -31779.476059539527    1133.053261980339 
  267000   -5518.655406180354   -5518.655406180354   25197.201781888907  -31780.911183456803    1065.053995387543 
  268000   -5539.432457142735   -5539.432457142735   25100.754458928743  -31777.330059573393    1137.143143501912 
  269000   -5561.340814052226   -5561.340814052226   25072.462330981991  -31782.261662209650    1148.458517175437 
  270000   -5535.233485529054   -5535.233485529054   25104.090230170776  -31783.324904941179    1144.001189241347 
  271000   -5548.108079839589   -5548.108079839589   25081.121087022460  -31777.721589794168    1148.492422932123 
  272000   -5570.390351162609   -5570.390351162609   25108.530889574409  -31778.779154907283    1099.857914170265 
  273000   -5498.485989453919   -5498.485989453919   25189.487477049996  -31781.109518238940    1093.136051735029 
  274000   -5511.334090400116   -5511.334090400116   25213.637768176617  -31776.199021851538    1051.227163274807 
  275000   -5586.929658166588   -5586.929658166588   25040.350520081560  -31783.723426003267    1156.443247755117 
  276000   -5512.679265207131   -5512.679265207131   25112.852670418135  -31778.867197314932    1153.335261689667 
  277000   -5500.516009748189   -5500.516009748189   25236.342495734047  -31775.379360560171    1038.520855077933 
  278000   -5569.722061355125   -5569.722061355125   25087.958767100492  -31777.627429225293    1119.946600769682 
  279000   -5537.452947187827   -5537.452947187827   25172.685169808861  -31778.874081815327    1068.735964818642 
  280000   -5486.616564556949   -5486.616564556949   25222.959759504145  -31778.550976775739    1068.974652714650 
  281000   -5507.135493610291   -5507.135493610291   25232.895304113601  -31779.642055435044    1039.611257711152 
  282000   -5464.483404810060   -5464.483404810060   25222.758777322157  -31777.690766078933    1090.448583946712 
  283000   -5525.166507174650   -5525.166507174650   25168.111620719021  -31780.272781666208    1086.994653772539 
  284000   -5538.052068549510   -5538.052068549510   25089.590793901498  -31779.094265588010    1151.451403137001 
  285000   -5533.768516153494   -5533.768516153494   25135.311392395583  -31778.472494641534    1109.392586092458 
  286000   -5616.865056655348   -5616.865056655348   25010.084807140593  -31781.998115565042    1155.048251769107 
  287000   -5521.395535087253   -5521.395535087253   25201.514976817733  -31775.321776249129    1052.411264344145 
  288000   -5543.476591036149   -5543.476591036149   25125.585123073623  -31781.107049082191    1112.045334972416 
  289000   -5453.727312002939   -5453.727312002939   25265.094298009855  -31776.158229540782    1057.336619527990 
  290000   -5496.764027416830   -5496.764027416830   25227.756480490694  -31781.472812249252    1056.952304341727 
  291000   -5462.428199911905   -5462.428199911905   25220.644587250041  -31777.708320150865    1094.635532988920 
  292000   -5542.855889114595   -5542.855889114595   25152.001445245092  -31780.839923580166    1085.982589220480 
  293000   -5582.823393538565   -5582.823393538565   25044.562309273257  -31777.418402007075    1150.032699195249 
  294000   -5528.196699830278   -5528.196699830278   25183.272700893256  -31780.348295491458    1068.878894767927 
  295000   -5539.792457546275   -5539.792457546275   25099.841747030401  -31782.255898802803    1142.621694226130 
  296000   -5516.952288802091   -5516.952288802091   25111.169312704471  -31780.318813007292    1152.197211500732 
  297000   -5464.373678735501   -5464.373678735501   25217.650583130799  -31777.638454474676    1095.614192608382 
  298000   -5489.799162384395   -5489.799162384395   25269.829499984458  -31780.460799098375    1020.832136729518 
  299000   -5530.495935098977   -5530.495935098977   25135.191871558167  -31781.323150748551    1115.635344091401 
  300000   -5480.933230240062   -5480.933230240062   25201.580443538380  -31780.131796155747    1097.618122377305 
  301000   -5507.669181485711   -5507.669181485711   25199.286451422020  -31781.414558968077    1074.458926060341 
  302000   -5510.839642407955   -5510.839642407955   25246.142437659721  -31778.822418564334    1021.840338496654 
  303000   -5487.785747712460   -5487.785747712460   25251.191803176727  -31781.572815824653    1042.595264935466 
  304000   -5471.976882757801   -5471.976882757801   25210.349376195474  -31780.944701493929    1098.618442540653 
  305000   -5510.324210673454   -5510.324210673454   25237.911118018150  -31779.276221942135    1031.040893250525 
  306000   -5471.481456418460   -5471.481456418460   25293.885067884265  -31779.252902655000    1013.886378352276 
  307000   -5476.084886930501   -5476.084886930501   25243.411299634092  -31777.509703770567    1058.013517205978 
  308000   -5511.087882636759   -5511.087882636759   25193.092802255640  -31780.600148167290    1076.419463274893 
  309000   -5589.372649569181   -5589.372649569181   25088.653349961216  -31782.225408104412    1104.199408574018 
  310000   -5529.214687947475   -5529.214687947475   25210.899761945417  -31778.963311628271    1038.848861735374 
  311000   -5537.224235056103   -5537.224235056103   25184.169928377421  -31784.360258884455    1062.966095450930 
  312000   -5490.312552567113   -5490.312552567113   25240.575650549159  -31779.735510642226    1048.847307525955 
  313000   -5533.783335039807   -5533.783335039807   25216.562166025309  -31782.270269545043    1031.924768479926 
  314000   -5466.833236071157   -5466.833236071157   25253.422454475054  -31781.553346790268    1061.297656244056 
  315000   -5516.226824429956   -5516.226824429956   25254.938997952217  -31777.348629232212    1006.182806850039 
  316000   -5514.764014881381   -5514.764014881381   25114.257931084736  -31778.873102938491    1149.851156972380 
  317000   -5488.844907897106   -5488.844907897106   25217.279662770907  -31777.562233546272    1071.437662878265 
  318000   -5473.846705532549   -5473.846705532549   25291.697053640830  -31779.440448333098    1013.896689159719 
  319000   -5454.104913910371   -5454.104913910371   25266.256175058559  -31776.876777050606    1056.515688081677 
  320000   -5501.143482489591   -5501.143482489591   25233.469250003978  -31780.564546357775    1045.951813864211 
  321000   -5527.173028084242   -5527.173028084242   25167.437543943422  -31778.609769595994    1083.999197568330 
  322000   -5472.091217590147   -5472.091217590147   25292.405770255929  -31781.673512606678    1017.176524760602 
  323000   -5564.437860272406   -5564.437860272406   25125.172548140486  -31781.216390161975    1091.605981749080 
  324000   -5494.189614888892   -5494.189614888892   25127.683612937886  -31785.090197095145    1163.216969268367 
  325000   -5524.846181156478   -5524.846181156478   25154.267317116726  -31779.395053484353    1100.281555211145 
  326000   -5476.280508074509   -5476.280508074509   25212.782342291561  -31778.951472718392    1089.888622352325 
  327000   -5521.746024635435   -5521.746024635435   25187.897174154798  -31781.294766050651    1071.651567260416 
  328000   -5484.844844395804   -5484.844844395804   25252.582592068582  -31773.761030623024    1036.333594158639 
  329000   -5523.401157909811   -5523.401157909811   25146.710588615733  -31775.380972962801    1105.269226437252 
  330000   -5493.808606155137   -5493.808606155137   25177.749110404922  -31778.353555066205    1106.795838506149 
  331000   -5527.494183070146   -5527.494183070146   25097.126699452579  -31781.173754209329    1156.552871686603 
  332000   -5509.076633093780   -5509.076633093780   25117.557936648540  -31775.656970504155    1149.022400761837 
  333000   -5602.622071586135   -5602.622071586135   25033.485494918903  -31783.297530891614    1147.189964386575 
  334000   -5538.932658608235   -5538.932658608235   25155.024444279748  -31779.563818051862    1085.606715163877 
  335000   -5502.621336026328   -5502.621336026328   25202.304962864793  -31781.635491899156    1076.709193008037 
  336000   -5478.728905486616   -5478.728905486616   25209.488189356049  -31779.781951171011    1091.564856328348 
  337000   -5466.406196294323   -5466.406196294323   25223.658370614634  -31780.121663202030    1090.057096293067 
  338000   -5543.230195241278   -5543.230195241278   25120.948028957002  -31778.703989974547    1114.525765776269 
  339000   -5518.704021178612   -5518.704021178612   25219.968950572820  -31777.694027838384    1039.021056086948 
  340000   -5510.625658296252   -5510.625658296252   25228.618317160784  -31780.377163504927    1041.133188047887 
  341000   -5526.013386215462   -5526.013386215462   25150.065917144046  -31780.893223821291    1104.813920461787 
  342000   -5488.973190307737   -5488.973190307737   25182.450281245339  -31781.309488658339    1109.886017105257 
  343000   -5456.152256328955   -5456.152256328955   25338.297245545480  -31779.094168737338     984.644666862899 
  344000   -5506.170342088328   -5506.170342088328   25137.302072443897  -31775.011837642054    1131.539423109831 
  345000   -5549.709358998723   -5549.709358998723   25123.768634589200  -31781.121860478004    1107.643866890080 
  346000   -5493.353591931456   -5493.353591931456   25238.627924815377  -31780.372514945073    1048.390998198238 
  347000   -5577.809981661838   -5577.809981661838   25148.287563223515  -31776.737418534776    1050.639873649427 
  348000   -5543.852874781554   -5543.852874781554   25137.829556130906  -31781.875673904662    1100.193242992207 
  349000   -5510.662160810283   -5510.662160810283   25185.779693830722  -31778.692648154036    1082.250793513032 
  350000   -5517.032955782153   -5517.032955782153   25209.524521904241  -31779.975522966452    1053.418045280059 
  351000   -5549.524631206106   -5549.524631206106   25068.251433231977  -31779.782899789781    1162.006835351703 
  352000   -5436.495718719445   -5436.495718719445   25332.493363061174  -31773.846788826278    1004.857707045660 
  353000   -5527.455859000085   -5527.455859000085   25169.990835583158  -31778.523058314669    1081.076363731429 
  354000   -5562.839063515574   -5562.839063515574   25087.512757962450  -31777.957120243787    1127.605298765767 
  355000   -5577.362727991349   -5577.362727991349   25138.762341510479  -31778.661845389328    1062.536775887502 
  356000   -5566.334721147283   -5566.334721147283   25105.573418459368  -31781.230705871621    1109.322566264970 
  357000   -5516.868164278596   -5516.868164278596   25157.908528273329  -31780.263183158615    1105.486490606689 
  358000   -5532.702633196797   -5532.702633196797   25108.659747400612  -31778.488622741959    1137.126242144548 
  359000   -5509.314644823633   -5509.314644823633   25148.201292248988  -31782.261021390765    1124.745084318142 
  360000   -5565.288558307158   -5565.288558307158   25106.478009981467  -31781.001544951567    1109.234976662945 
  361000   -5540.327001154121   -5540.327001154121   25171.555367062916  -31779.620175144199    1067.737806927163 
  362000   -5545.165059474566   -5545.165059474566   25129.232692944010  -31782.869509190285    1108.471756771710 
  363000   -5459.714605329733   -5459.714605329733   25296.918792572222  -31779.207967931259    1022.574570029303 
  364000   -5559.592340348594   -5559.592340348594   25145.975949125197  -31782.163376907989    1076.595087434193 
  365000   -5480.878364624237   -5480.878364624237   25251.122103539936  -31781.317878061214    1049.317409897041 
  366000   -5520.168221866868   -5520.168221866868   25154.865924560498  -31777.714543991649    1102.680397564286 
  367000   -5554.096324843602   -5554.096324843602   25104.463097523032  -31779.934659347902    1121.375236981269 
  368000   -5538.325342325214   -5538.325342325214   25043.149286778938  -31779.744864024895    1198.270234920747 
  369000   -5571.290280654841   -5571.290280654841   25033.762620906255  -31779.814885733631    1174.761984172534 
  370000   -5511.514804653656   -5511.514804653656   25181.286142721576  -31778.501684570343    1085.700737195115 
  371000   -5554.273873745376   -5554.273873745376   25111.612388023339  -31780.881927355935    1114.995665587220 
  372000   -5474.655589016602   -5474.655589016602   25273.455941857137  -31778.923371833498    1030.811840959761 
  373000   -5511.471812656109   -5511.471812656109   25222.975022937630  -31777.594043294030    1043.147207700289 
  374000   -5470.630054617170   -5470.630054617170   25297.049760003574  -31778.115844289045    1010.436029668295 
  375000   -5500.528580052698   -5500.528580052698   25171.304625313787  -31776.517625646404    1104.684420279913 
  376000   -5522.222564867025   -5522.222564867025   25185.811596542026  -31778.012575202702    1069.978413793650 
  377000   -5489.837713004399   -5489.837713004399   25151.804958697150  -31777.072211679504    1135.429539977961 
  378000   -5486.469934971257   -5486.469934971257   25257.466197202106  -31778.397417307340    1034.461285133981 
  379000   -5522.491579935831   -5522.491579935831   25199.093446098934  -31778.844653633034    1057.259627598270 
  380000   -5561.638426153793   -5561.638426153793   25132.559966688357  -31780.350930001285    1086.152537159131 
  381000   -5536.479533408830   -5536.479533408830   25260.290753616424  -31778.402578424815     981.632291399563 
  382000   -5493.335364149676   -5493.335364149676   25218.738396758683  -31784.486833828378    1072.413072920019 
  383000   -5510.284208310764   -5510.284208310764   25227.269284122995  -31779.545371308897    1041.991878875139 
  384000   -5572.040980978225   -5572.040980978225   25069.201378949150  -31779.697388698005    1138.455028770629 
  385000   -5520.312473839294   -5520.312473839294   25192.049598189471  -31773.820331699950    1061.458259671184 
  386000   -5525.157290121013   -5525.157290121013   25140.937800591040  -31780.834615891410    1114.739525179359 
  387000   -5545.742117622114   -5545.742117622114   25150.555380294649  -31784.069769090860    1087.772271174102 
  388000   -5542.475181113437   -5542.475181113437   25184.997777230376  -31779.875026755504    1052.402068411689 
  389000   -5557.559534061358   -5557.559534061358   25121.083219127748  -31778.994224896640    1100.351471707536 
  390000   -5511.217487626986   -5511.217487626986   25209.758053096779  -31776.175816609262    1055.200275885501 
  391000   -5527.388101650715   -5527.388101650715   25173.012377068073  -31781.343900060670    1080.943421341881 
  392000   -5562.695719098603   -5562.695719098603   25100.766095544248  -31779.268559547374    1115.806744904522 
  393000   -5548.968457259849   -5548.968457259849   25137.930870021530  -31778.392728711318    1091.493401429942 
  394000   -5521.102647175092   -5521.102647175092   25208.049919364432  -31779.126450350526    1049.973883811004 
  395000   -5551.494550309293   -5551.494550309293   25112.998003136519  -31780.775704996635    1116.283151550822 
  396000   -5525.804150758901   -5525.804150758901   25203.170715068143  -31776.307996985110    1047.333131158068 
  397000   -5529.521564151404   -5529.521564151404   25161.906203652885  -31778.436829973562    1087.009062169270 
  398000   -5541.237193867557   -5541.237193867557   25261.006794432917  -31780.067169996422     977.823181695945 
  399000   -5523.921739352725   -5523.921739352725   25166.550636162963  -31782.038187056987    1091.565811541302 
  400000   -5486.837840559798   -5486.837840559798   25194.995082073714  -31774.629512675478    1092.796590041964 
  401000   -5542.442381654349   -5542.442381654349   25147.329163489085  -31778.127651714898    1088.356106571464 
  402000   -5510.667092452335   -5510.667092452335   25196.085243456422  -31776.385863050389    1069.633527141631 
  403000   -5561.553306783804   -5561.553306783804   25090.638225430303  -31778.494377261770    1126.302845047668 
  404000   -5492.229221452089   -5492.229221452089   25215.955806756632  -31777.627595855145    1069.442567646427 
  405000   -5512.539548254110   -5512.539548254110   25128.626593430468  -31778.511715866895    1137.345574182317 
  406000   -5532.930260203550   -5532.930260203550   25217.052869285755  -31783.735349169485    1033.752219680175 
  407000   -5519.166055517057   -5519.166055517057   25156.837324355518  -31775.352723666147    1099.349343793574 
  408000   -5513.698144988135   -5513.698144988135   25190.010939886408  -31781.784511562568    1078.075426688022 
  409000   -5494.225490040051   -5494.225490040051   25266.837492182007  -31777.419443078583    1016.356460856529 
  410000   -5550.063851198101   -5550.063851198101   25186.576096002314  -31780.080697015968    1043.440749815551 
  411000   -5502.303809966867   -5502.303809966867   25173.461767794772  -31773.149883298363    1097.384305536724 
  412000   -5493.556553849219   -5493.556553849219   25176.909551535733  -31775.988391238512    1105.522285853559 
  413000   -5506.914626531383   -5506.914626531383   25193.609383846277  -31778.594944249016    1078.070933871354 
  414000   -5555.445853683024   -5555.445853683024   25156.273748504049  -31776.493476262287    1064.773874075217 
  415000   -5580.631550672755   -5580.631550672755   25098.591119512032  -31777.019539071596    1097.796868886809 
  416000   -5583.043677168334   -5583.043677168334   25104.209729748629  -31779.712481611121    1092.459074694157 
  417000   -5576.781000246763   -5576.781000246763   25116.015144825506  -31779.453265781791    1086.657120709523 
  418000   -5544.293623689493   -5544.293623689493   25163.536791969927  -31784.223457905715    1076.393042246293 
  419000   -5533.232207038644   -5533.232207038644   25149.060550102844  -31784.314897568929    1102.022140427443 
  420000   -5528.358773982483   -5528.358773982483   25089.515722920572  -31780.640272615743    1162.765775712686 
  421000   -5544.014409601710   -5544.014409601710   25155.565174809031  -31778.452572283881    1078.872987873136 
  422000   -5509.403459117751   -5509.403459117751   25211.330040858156  -31775.182016578470    1054.448516602561 
  423000   -5447.059345248901   -5447.059345248901   25246.381398066671  -31781.474100028132    1088.033356712561 
  424000   -5491.334886876655   -5491.334886876655   25249.056329419709  -31778.082290458948    1037.691074162582 
  425000   -5530.577657999318   -5530.577657999318   25217.779104705594  -31779.787538150631    1031.430775445720 
  426000   -5493.532796881165   -5493.532796881165   25153.649355216639  -31777.156361035351    1129.974208937545 
  427000   -5503.081274877724   -5503.081274877724   25154.621480324360  -31779.462745394165    1121.759990192083 
  428000   -5550.052613454212   -5550.052613454212   25041.927000280120  -31778.745146053439    1186.765532319103 
  429000   -5552.068587531452   -5552.068587531452   25132.700871481880  -31776.947641196799    1092.178182183461 
  430000   -5541.743684070185   -5541.743684070185   25099.529751265691  -31779.239254759384    1137.965819423503 
  431000   -5508.269182482429   -5508.269182482429   25151.904093367877  -31779.176780548511    1119.003504698205 
  432000   -5536.994329626057   -5536.994329626057   25108.286719837346  -31780.690265033107    1135.409215569702 
  433000   -5493.615881742226   -5493.615881742226   25131.767773442298  -31775.809188005995    1150.425532821474 
  434000   -5519.108047322308   -5519.108047322308   25161.300554387064  -31780.251868180378    1099.843266471009 
  435000   -5548.809226408655   -5548.809226408655   25091.795705464112  -31781.289812623865    1140.684880751097 
  436000   -5489.360801305334   -5489.360801305334   25147.794875676689  -31779.502201856707    1142.346524874688 
  437000   -5529.132202087301   -5529.132202087301   25183.209451707742  -31780.895284956358    1068.553631161314 
  438000   -5474.626140421929   -5474.626140421929   25258.936624735394  -31776.587513345996    1043.024748188672 
  439000   -5510.805719685468   -5510.805719685468   25221.110258106688  -31782.254731104291    1050.338753312133 
  440000   -5498.900964825803   -5498.900964825803   25238.013745354721  -31777.239966859310    1040.325256678782 
  441000   -5542.813947773800   -5542.813947773800   25151.885281204111  -31783.593298737735    1088.894069759821 
  442000   -5512.868324905943   -5512.868324905943   25134.145737884995  -31782.024303265793    1135.010240474859 
  443000   -5473.584997037633   -5473.584997037633   25145.480530977991  -31778.542115185639    1159.476587170018 
  444000   -5510.939709756367   -5510.939709756367   25296.605892980086  -31784.125085469404     976.579482732955 
  445000   -5465.511006881326   -5465.511006881326   25291.789978100889  -31777.322698784057    1020.021713801838 
  446000   -5531.993713828164   -5531.993713828164   25165.328289539200  -31781.800465185523    1084.478461818162 
  447000   -5523.933841872476   -5523.933841872476   25193.682267581651  -31781.336135469664    1063.720026015538 
  448000   -5479.936880726924   -5479.936880726924   25186.348615477924  -31778.535290708529    1112.249794503686 
  449000   -5513.604570395939   -5513.604570395939   25185.009122906693  -31778.132825418757    1079.519132116123 
  450000   -5585.717874120164   -5585.717874120164   25047.810611020883  -31779.097101349602    1145.568616208555 
  451000   -5475.169540239982   -5475.169540239982   25278.737501005668  -31780.606641509334    1026.699600263684 
  452000   -5527.393882218836   -5527.393882218836   25124.340193313888  -31776.108997973788    1124.374922441069 
  453000   -5543.972808669503   -5543.972808669503   25183.843086796711  -31778.249181484542    1050.433286018326 
  454000   -5585.433474562113   -5585.433474562113   25061.524585964071  -31781.719261268317    1134.761200742128 
  455000   -5536.178918585105   -5536.178918585105   25088.131535413417  -31774.037162292425    1149.726708293907 
  456000   -5505.198843675509   -5505.198843675509   25203.670987934573  -31777.070470851020    1068.200639240937 
  457000   -5529.893376094347   -5529.893376094347   25164.572486162877  -31779.387085429393    1084.921223172173 
  458000   -5504.646007342999   -5504.646007342999   25178.245279381925  -31774.443301353480    1091.552014628558 
  459000   -5535.785821900499   -5535.785821900499   25156.748384582061  -31780.125907450576    1087.591700968019 
  460000   -5473.631342366702   -5473.631342366702   25282.367897653206  -31777.037770851355    1021.038530831451 
  461000   -5484.487582787478   -5484.487582787478   25191.740154367850  -31780.493563832522    1104.265826677194 
  462000   -5513.474561188428   -5513.474561188428   25171.297586092212  -31779.499017305250    1094.726870024614 
  463000   -5462.201995624164   -5462.201995624164   25278.318508259290  -31775.641024658988    1035.120520775538 
  464000   -5467.172387601666   -5467.172387601666   25207.526968131751  -31777.784031243358    1103.084675509939 
  465000   -5500.118334236875   -5500.118334236875   25157.019529314843  -31780.781704207555    1123.643840655836 
  466000   -5481.483168148781   -5481.483168148781   25207.685942697164  -31778.942516711471    1089.773405865529 
  467000   -5502.183816880068   -5502.183816880068   25175.351167582623  -31771.951166525654    1094.416182062963 
  468000   -5538.299221605372   -5538.299221605372   25124.578826110494  -31780.776920327316    1117.898872611453 
  469000   -5529.311341034747   -5529.311341034747   25194.073655799071  -31781.764688768570    1058.379691934749 
  470000   -5501.802505005810   -5501.802505005810   25249.143353828582  -31779.881431000027    1028.935572165629 
  471000   -5560.247263264398   -5560.247263264398   25134.352195064068  -31779.671843732973    1085.072385404504 
  472000   -5481.204736019619   -5481.204736019619   25221.239188178457  -31780.866678138755    1078.422753940675 
  473000   -5555.568771748320   -5555.568771748320   25105.585839650241  -31781.674105049533    1120.519493650974 
  474000   -5540.109932685456   -5540.109932685456   25109.462385066901  -31779.862814589967    1130.290496837611 
  475000   -5502.918659371284   -5502.918659371284   25250.143031514752  -31783.011545142635    1029.949854256600 
  476000   -5483.836777004239   -5483.836777004239   25262.572041144165  -31774.385006391713    1027.976188243309 
  477000   -5525.797838728155   -5525.797838728155   25136.956792758268  -31780.088668237811    1117.334036751392 
  478000   -5532.519130556269   -5532.519130556269   25137.941426463472  -31778.069586885907    1107.609029866165 
  479000   -5554.665946793022   -5554.665946793022   25105.436340586988  -31777.721661814903    1117.619374434891 
  480000   -5499.778812634475   -5499.778812634475   25175.641774061332  -31783.195742465858    1107.775155770051 
  481000   -5498.451454549744   -5498.451454549744   25246.917613805548  -31774.559930002579    1029.190861647283 
  482000   -5541.755664856748   -5541.755664856748   25176.935930589381  -31779.826275147876    1061.134679701752 
  483000   -5530.631612139536   -5530.631612139536   25199.803761406518  -31779.834277920534    1049.398904374484 
  484000   -5567.177748988917   -5567.177748988917   25074.185303151004  -31781.034239239136    1139.671187099219 
  485000   -5562.477364174574   -5562.477364174574   25145.674370490531  -31782.873164107990    1074.721429442885 
  486000   -5593.976198394466   -5593.976198394466   25077.833922227997  -31776.752885806451    1104.942765183992 
  487000   -5490.640351501210   -5490.640351501210   25230.973433916864  -31776.308020362067    1054.694234943994 
  488000   -5493.222162315687   -5493.222162315687   25155.406452509502  -31780.689171905316    1132.060557080127 
  489000   -5487.182079418340   -5487.182079418340   25183.318402383928  -31778.452897690222    1107.952415887948 
  490000   -5546.114119993050   -5546.114119993050   25104.037440683769  -31777.404891767888    1127.253331091069 
  491000   -5486.571009642816   -5486.571009642816   25261.865171163125  -31779.067477972974    1030.631297167034 
  492000   -5563.791724970750   -5563.791724970750   25164.880441516267  -31778.888397223203    1050.216230736188 
  493000   -5533.101670315256   -5533.101670315256   25161.171487422471  -31779.117787744592    1084.844630006863 
  494000   -5495.771116886383   -5495.771116886383   25243.122697820578  -31779.419603408918    1040.525788701962 
  495000   -5554.962711683220   -5554.962711683220   25107.771725647617  -31779.560082445492    1116.825645114658 
  496000   -5532.590195789988   -5532.590195789988   25120.198976843407  -31784.304459182120    1131.515286548726 
  497000   -5506.426613498959   -5506.426613498959   25127.600089191743  -31778.117755644711    1144.091052954006 
  498000   -5451.187077938725   -5451.187077938725   25246.806122567003  -31777.067861201467    1079.074660695737 
  499000   -5522.816177931487   -5522.816177931487   25207.975468928948  -31782.892327224337    1052.100680363902 
  500000   -5547.280583565920   -5547.280583565920   25112.011072725993  -31779.645454712860    1120.353798420949 
  501000   -5555.698906107737   -5555.698906107737   25133.406930882164  -31780.139819784712    1091.033982794815 
  502000   -5509.604024197310   -5509.604024197310   25193.918608302585  -31779.335626007727    1075.812993507828 
  503000   -5499.487835892134   -5499.487835892134   25256.621264589070  -31783.370268199302    1027.261167718101 
  504000   -5562.102626788765   -5562.102626788765   25147.429809183341  -31778.820286983751    1069.287851011646 
  505000   -5496.641267357441   -5496.641267357441   25226.954714653293  -31774.683036626146    1051.087054615414 
  506000   -5541.428110128130   -5541.428110128130   25126.603168339825  -31781.365625778431    1113.334347310475 
  507000   -5531.815077115309   -5531.815077115309   25172.196921907394  -31779.862975155113    1075.850976132405 
  508000   -5506.198663227187   -5506.198663227187   25126.040383084783  -31781.178982958492    1148.939936646522 
  509000   -5488.177823101858   -5488.177823101858   25236.750725654994  -31776.271226752080    1051.342677995232 
  510000   -5533.314378814663   -5533.314378814663   25139.719206624104  -31780.607968395998    1107.574382957232 
  511000   -5574.683523055301   -5574.683523055301   25051.398833489919  -31782.619457650788    1156.537101105564 
  512000   -5461.111396898563   -5461.111396898563   25259.926982603502  -31779.474546780690    1058.436167278629 
  513000   -5485.719445521518   -5485.719445521518   25235.336525059545  -31779.994732664203    1058.938762083144 
  514000   -5490.382707029981   -5490.382707029981   25208.665099345093  -31779.775413368763    1080.727606993689 
  515000   -5578.032308362905   -5578.032308362905   25059.201222168816  -31783.640913038307    1146.407382506581 
  516000   -5528.240495011847   -5528.240495011847   25222.524949027124  -31779.708580675848    1028.943136636877 
  517000   -5599.583376312079   -5599.583376312079   25105.166582964965  -31780.664587600764    1075.914628323720 
  518000   -5539.488582220751   -5539.488582220751   25137.785164092558  -31777.445377779113    1100.171631465807 
  519000   -5534.247894749697   -5534.247894749697   25176.660102520509  -31776.079710165406    1065.171712895200 
  520000   -5593.566283410772   -5593.566283410772   25021.163584775470  -31781.002992012807    1166.273123826561 
  521000   -5528.004931828778   -5528.004931828778   25133.705117671045  -31776.327499983403    1114.617450483580 
  522000   -5520.010181140224   -5520.010181140224   25186.211173460542  -31776.165912984219    1069.944558383454 
  523000   -5505.332424872082   -5505.332424872082   25168.381498801624  -31777.165205373545    1103.451281699838 
  524000   -5516.785433145244   -5516.785433145244   25137.912715468799  -31782.322640465045    1127.624491850998 
  525000   -5498.167358477858   -5498.167358477858   25237.777339907407  -31781.410034095821    1045.465335710556 
  526000   -5591.846729674289   -5591.846729674289   25079.332104929323  -31782.388986146419    1111.210151542807 
  527000   -5553.296236082420   -5553.296236082420   25129.345460653301  -31778.936116126577    1096.294419390850 
  528000   -5482.512695627523   -5482.512695627523   25277.130932782820  -31777.816755435906    1018.173127025563 
  529000   -5555.244353666749   -5555.244353666749   25138.602065293388  -31778.688392296899    1084.841973336762 
  530000   -5567.795632190126   -5567.795632190126   25079.428645608321  -31778.882157963202    1131.657880164759 
  531000   -5514.550464079726   -5514.550464079726   25179.430666969038  -31779.000320809337    1085.019189760574 
  532000   -5616.238019558012   -5616.238019558012   25027.709274349418  -31782.340016173483    1138.392722266060 
  533000   -5578.041433906212   -5578.041433906212   25091.474940691816  -31778.955475811417    1109.439101213382 
  534000   -5497.814994598561   -5497.814994598561   25197.813804733800  -31780.660197523084    1085.031398190721 
  535000   -5531.235154325994   -5531.235154325994   25157.006412508672  -31782.017683399368    1093.776116564701 
  536000   -5446.183684590636   -5446.183684590636   25331.304319368959  -31779.152623824230    1001.664619864635 
  537000   -5538.416733136688   -5538.416733136688   25214.776394371060  -31779.939691741765    1026.746564234012 
  538000   -5512.112651826883   -5512.112651826883   25162.361716464260  -31779.408437305443    1104.934069014298 
  539000   -5562.727269696632   -5562.727269696632   25060.811212487628  -31781.253188799928    1157.714706615677 
  540000   -5558.287460104340   -5558.287460104340   25093.400563533451  -31780.145876514685    1128.457852876896 
  541000   -5545.006652297772   -5545.006652297772   25145.101677285762  -31780.408283705921    1090.299954122387 
  542000   -5563.599093977929   -5563.599093977929   25127.035933884297  -31780.019021840002    1089.383993977775 
  543000   -5502.732994221162   -5502.732994221162   25235.532817074818  -31779.732026595622    1041.466215299643 
  544000   -5444.659625141539   -5444.659625141539   25335.650074547768  -31778.596508290400     998.286808601093 
  545000   -5522.864821454277   -5522.864821454277   25186.049433571156  -31784.026144599135    1075.111889573699 
  546000   -5523.288349008089   -5523.288349008089   25144.530331519618  -31778.047685664613    1110.229005136902 
  547000   -5477.623789130408   -5477.623789130408   25282.304006771152  -31779.792314758375    1019.864518856815 
  548000   -5597.964430949582   -5597.964430949582   25070.178864758738  -31784.139659305052    1115.996363596734 
  549000   -5513.641498405217   -5513.641498405217   25215.605011363936  -31778.631089628627    1049.384579859471 
  550000   -5542.759383538083   -5542.759383538083   25152.093506366698  -31781.052376427888    1086.199486523108 
  551000   -5421.021329257539   -5421.021329257539   25289.598776679984  -31777.145438659096    1066.525332721569 
  552000   -5505.002255904343   -5505.002255904343   25189.001159511008  -31783.164349421186    1089.160934005835 
  553000   -5533.089860187567   -5533.089860187567   25144.869880711802  -31778.772295050734    1100.812554151368 
  554000   -5505.682220900042   -5505.682220900042   25139.037684431700  -31778.635177638535    1133.915272306794 
  555000   -5563.640816045758   -5563.640816045758   25067.661448928542  -31773.703186907274    1142.400921932968 
  556000   -5520.223127462014   -5520.223127462014   25135.228519699409  -31779.368861905430    1123.917214744009 
  557000   -5533.250742091797   -5533.250742091797   25148.114716207660  -31781.707692427819    1100.342234128360 
  558000   -5450.990512399963   -5450.990512399963   25242.372155738471  -31781.021897004088    1087.659228865652 
  559000   -5531.679603998182   -5531.679603998182   25122.509555559234  -31778.700158856456    1124.510999299038 
  560000   -5540.438091565749   -5540.438091565749   25144.216095227286  -31781.402520301879    1096.748333508845 
  561000   -5527.475648381926   -5527.475648381926   25181.265041074970  -31778.957626685606    1070.216937228712 
  562000   -5540.827508629671   -5540.827508629671   25121.854552658569  -31780.994112057146    1118.312050768907 
  563000   -5484.071270705197   -5484.071270705197   25205.888692438599  -31780.646579486831    1090.686616343036 
  564000   -5519.326740923123   -5519.326740923123   25171.332219112443  -31783.054427644973    1092.395467609410 
  565000   -5547.014474297390   -5547.014474297390   25181.665646904934  -31781.365634243335    1052.685513041014 
  566000   -5509.876103295217   -5509.876103295217   25177.695220883070  -31779.995091750345    1092.423767572054 
  567000   -5552.915355528381   -5552.915355528381   25066.985710390130  -31781.742113017797    1161.841047099285 
  568000   -5554.299087137930   -5554.299087137930   25137.741958921692  -31781.469975094631    1089.428929035011 
  569000   -5558.230504297549   -5558.230504297549   25150.752073036892  -31781.331054226270    1072.348476891827 
  570000   -5538.886304881857   -5538.886304881857   25148.780698477036  -31779.674142898806    1092.007139539915 
  571000   -5460.739958843769   -5460.739958843769   25222.977461025072  -31778.555827265729    1094.838407396885 
  572000   -5471.557898820407   -5471.557898820407   25207.415082102994  -31775.177778461242    1096.204797537843 
  573000   -5512.711419204577   -5512.711419204577   25174.706715287117  -31780.021213415261    1092.603078923561 
  574000   -5567.590593917270   -5567.590593917270   25089.711468985970  -31774.834712372576    1117.532649469335 
  575000   -5558.443565145884   -5558.443565145884   25077.956428800615  -31775.023242578645    1138.623248632144 
  576000   -5547.285144555328   -5547.285144555328   25119.863545094566  -31780.147120638943    1112.998430989049 
  577000   -5577.552886601305   -5577.552886601305   25143.192796500472  -31784.163565184161    1063.417882082384 
  578000   -5555.071658277229   -5555.071658277229   25075.626057180802  -31778.205597605887    1147.507882147858 
  579000   -5561.740337988635   -5561.740337988635   25163.067224840197  -31779.846414464231    1055.038851635402 
  580000   -5538.627637833077   -5538.627637833077   25134.241837253860  -31782.510778138010    1109.641303051077 
  581000   -5555.093628528815   -5555.093628528815   25057.030699697207  -31782.081669008665    1169.957340782647 
  582000   -5491.611582963633   -5491.611582963633   25261.312054054997  -31778.161066029803    1025.237429011176 
  583000   -5509.917354864603   -5509.917354864603   25209.402151030328  -31780.646924370496    1061.327418475567 
  584000   -5537.416051709984   -5537.416051709984   25177.310834606615  -31782.747716801408    1068.020830484808 
  585000   -5521.836374721868   -5521.836374721868   25169.927927846104  -31780.039350889412    1088.275048321436 
  586000   -5566.895035241632   -5566.895035241632   25060.070448776118  -31777.776179606553    1150.810695588808 
  587000   -5482.695162350712   -5482.695162350712   25194.815460590398  -31777.632985331900    1100.122362390787 
  588000   -5529.815177181528   -5529.815177181528   25216.821791906914  -31780.565644646504    1033.928675558059 
  589000   -5516.205347400421   -5516.205347400421   25173.925602540476  -31778.248050125316    1088.117100184419 
  590000   -5563.242480148259   -5563.242480148259   25117.100196089530  -31780.927119814718    1100.584443576929 
  591000   -5519.168079351140   -5519.168079351140   25168.348894317696  -31774.819261438566    1087.302287769729 
  592000   -5478.329388997037   -5478.329388997037   25248.141463014985  -31779.190707204729    1052.719855192711 
  593000   -5468.929945310934   -5468.929945310934   25142.429083319676  -31775.644250991150    1164.285222360540 
  594000   -5449.420353195175   -5449.420353195175   25310.588970857523  -31780.675973114998    1020.666649062295 
  595000   -5489.342831368256   -5489.342831368256   25215.484355183478  -31777.736063304634    1072.908876752897 
  596000   -5468.237879333887   -5468.237879333887   25244.398659168190  -31778.717734751848    1066.081196249771 
  597000   -5536.183961611227   -5536.183961611227   25173.127280336626  -31779.154381823668    1069.843139875817 
  598000   -5475.269710389373   -5475.269710389373   25234.588372243510  -31780.632478576903    1070.774395944023 
  599000   -5491.258054273163   -5491.258054273163   25207.224199796099  -31780.321337292258    1081.839083222992 
  600000   -5555.650319502467   -5555.650319502467   25055.278672122342  -31780.333293374722    1169.404301749915 
  601000   -5552.170295074317   -5552.170295074317   25059.635848499118  -31779.727792321693    1167.921648748257 
  602000   -5581.288981595368   -5581.288981595368   25095.427900647839  -31778.824635458077    1102.107753214866 
  603000   -5509.279962335077   -5509.279962335077   25151.423859103317  -31779.929302980472    1119.225481542077 
  604000   -5508.185058281986   -5508.185058281986   25265.660369592693  -31777.209608454086    1003.364180579405 
  605000   -5533.600887911762   -5533.600887911762   25214.166065452351  -31780.318579967323    1032.551626603207 
  606000   -5569.743619838533   -5569.743619838533   25173.494211091129  -31783.662323569126    1040.424492639467 
  607000   -5500.109414909974   -5500.109414909974   25184.463061163431  -31783.602417670816    1099.029941597414 
  608000   -5480.247087059044   -5480.247087059044   25229.754378499700  -31779.142060869410    1069.140595310667 
  609000   -5462.517115404644   -5462.517115404644   25161.292228136761  -31778.688075158934    1154.878731617531 
  610000   -5468.886509145126   -5468.886509145126   25264.428255772720  -31780.236554135099    1046.921789217250 
  611000   -5520.220839935235   -5520.220839935235   25189.421537595939  -31782.123066508379    1072.480688977205 
  612000   -5570.216819797359   -5570.216819797359   25039.354301801515  -31776.739273475770    1167.168151876897 
  613000   -5531.542681399049   -5531.542681399049   25116.119853966124  -31780.770194777931    1133.107659412760 
  614000   -5537.102124790086   -5537.102124790086   25189.510103223547  -31780.772391529841    1054.160163516204 
  615000   -5535.647196641683   -5535.647196641683   25188.528672086282  -31781.717991933107    1057.542123205145 
  616000   -5486.792530374158   -5486.792530374158   25161.185861640337  -31778.002306515744    1130.023914501248 
  617000   -5549.387059263579   -5549.387059263579   25135.455228798171  -31776.596046457416    1091.753758395671 
  618000   -5560.039924761411   -5560.039924761411   25044.400693002677  -31779.148197350863    1174.707579586769 
  619000   -5542.165110346548   -5542.165110346548   25151.390005992427  -31779.356888645234    1085.801772306264 
  620000   -5503.488746937928   -5503.488746937928   25157.501229038953  -31778.070301620282    1117.080325643400 
  621000   -5541.177668661458   -5541.177668661458   25139.975695001958  -31782.804017601014    1101.650653937599 
  622000   -5513.664318266678   -5513.664318266678   25208.998018759408  -31776.701939184244    1054.039602158156 
  623000   -5583.480336937526   -5583.480336937526   25088.300372095731  -31778.476846171619    1106.696137138362 
  624000   -5559.164909588773   -5559.164909588773   25120.172769666089  -31779.821573072470    1100.483893817603 
  625000   -5505.481158556056   -5505.481158556056   25246.240867747998  -31779.567950909368    1027.845924605314 
  626000   -5588.979802245522   -5588.979802245522   25141.894807081735  -31783.244207848002    1052.369598520747 
  627000   -5470.042460309451   -5470.042460309451   25217.350446426746  -31778.024650150863    1090.631743414666 
  628000   -5461.512763799787   -5461.512763799787   25253.823442622805  -31777.168042543322    1061.831836120736 
  629000   -5521.056939114293   -5521.056939114293   25164.558799118928  -31780.141278340772    1094.525540107555 
  630000   -5530.682070006289   -5530.682070006289   25144.991957192036  -31778.669137443976    1102.995110245652 
  631000   -5518.420880156180   -5518.420880156180   25145.521424379549  -31776.166536095039    1112.224231559310 
  632000   -5522.744332699865   -5522.744332699865   25140.141391041820  -31777.351553957877    1114.465830216195 
  633000   -5453.771000743356   -5453.771000743356   25222.217169766198  -31779.314266270099    1103.326095760542 
  634000   -5545.778157553192   -5545.778157553192   25142.234915920253  -31783.264821962519    1095.251748489073 
  635000   -5540.471616195278   -5540.471616195278   25133.585979366399  -31781.233150510921    1107.175554949250 
  636000   -5537.450506695513   -5537.450506695513   25117.891816012463  -31778.654112749169    1123.311790041188 
  637000   -5552.029471042821   -5552.029471042821   25132.867568746406  -31779.717968684781    1094.820928895553 
  638000   -5527.853236232579   -5527.853236232579   25168.550042458563  -31776.130083251643    1079.726804560503 
  639000   -5533.497112080131   -5533.497112080131   25162.741520939719  -31778.240920671931    1082.002287652083 
  640000   -5555.809035322654   -5555.809035322654   25113.629779094408  -31779.829490206313    1110.390675789253 
  641000   -5525.061565940625   -5525.061565940625   25089.391301003896  -31776.743172858791    1162.290305914271 
  642000   -5502.954106668269   -5502.954106668269   25183.867705939032  -31777.017347892677    1090.195535285373 
  643000   -5475.894959079964   -5475.894959079964   25294.125680049456  -31777.763981245578    1007.743342116157 
  644000   -5534.712332354455   -5534.712332354455   25101.623306455989  -31780.464345503937    1144.128706693490 
  645000   -5568.346070363139   -5568.346070363139   25085.930973067530  -31777.978195550899    1123.701152120227 
  646000   -5499.256175901020   -5499.256175901020   25212.891667367050  -31781.318779461777    1069.170936193705 
  647000   -5521.508888926644   -5521.508888926644   25178.593397428398  -31780.946415064758    1080.844128709720 
  648000   -5493.707757699787   -5493.707757699787   25268.132800603264  -31784.100101442004    1022.259543138953 
  649000   -5486.959960127861   -5486.959960127861   25276.170498526346  -31780.101121822896    1016.970663168692 
  650000   -5451.828192757617   -5451.828192757617   25270.889155743491  -31779.037239145229    1056.319890644117 
  651000   -5523.303062161565   -5523.303062161565   25141.230231950056  -31779.438909639975    1114.905615528353 
  652000   -5506.094434199316   -5506.094434199316   25179.855872705535  -31777.761505363378    1091.811198458524 
  653000   -5493.069554423815   -5493.069554423815   25146.271516167115  -31778.573263636110    1139.232193045176 
  654000   -5463.703512867149   -5463.703512867149   25181.321378094388  -31775.460378909953    1130.435487948414 
[...]
 4838000   -5540.462290930060   -5540.462290930060   24890.608856996376  -31547.255407765762    1116.184259839329 
 4839000   -5557.887823936220   -5557.887823936220   24835.165360560175  -31547.742863073985    1154.689678577590 
 4840000   -5545.325012928486   -5545.325012928486   24869.461052957537  -31548.348231058375    1133.562165172348 
 4841000   -5591.276218971445   -5591.276218971445   24845.070927685549  -31546.322786293189    1109.975639636193 
 4842000   -5530.365876232321   -5530.365876232321   24909.166738822307  -31548.088564063397    1108.555949008766 
 4843000   -5592.694201892689   -5592.694201892689   24906.496977901050  -31547.066863033320    1047.875683239584 
 4844000   -5559.536199065078   -5559.536199065078   24904.022440906410  -31543.913356349211    1080.354716377724 
 4845000   -5528.945784919895   -5528.945784919895   24945.010260963223  -31541.972613618193    1068.016567735077 
 4846000   -5529.031117036771   -5529.031117036771   24962.759643825593  -31542.881203608835    1051.090442746471 
 4847000   -5546.916309232871   -5546.916309232871   24850.776293966133  -31547.206282444411    1149.513679245403 
 4848000   -5589.417324701793   -5589.417324701793   24825.359758736435  -31548.905329799665    1134.128246361438 
 4849000   -5515.615378619874   -5515.615378619874   24940.299028835110  -31547.304632307438    1091.390224852456 
 4850000   -5508.190486477186   -5508.190486477186   24903.313311347621  -31540.507462195801    1129.003664370992 
 4851000   -5558.016019980158   -5558.016019980158   24944.341050266357  -31545.186636302704    1042.829566056189 
 4852000   -5529.388097194580   -5529.388097194580   25015.552783538056  -31546.910177576792    1001.969296844158 
 4853000   -5535.804745286252   -5535.804745286252   24854.199405276595  -31545.106049116173    1155.101898553324 
 4854000   -5479.765922462575   -5479.765922462575   25040.006613166515  -31544.003247203254    1024.230711574161 
 4855000   -5538.262419790197   -5538.262419790197   24982.265062755658  -31546.953172111072    1026.425689565215 
 4856000   -5436.692153414973   -5436.692153414973   25013.916200562038  -31545.562292299899    1094.953938322891 
 4857000   -5529.903723847383   -5529.903723847383   24868.077788581384  -31546.849452765618    1148.867940336855 
 4858000   -5516.644003986621   -5516.644003986621   24951.370964284855  -31544.927335099517    1076.912366828046 
 4859000   -5517.151052286477   -5517.151052286477   24939.593064113527  -31544.949960289930    1088.205843889922 
 4860000   -5509.106662874932   -5509.106662874932   24949.597351758974  -31544.774310371471    1086.070295737562 
 4861000   -5549.638191055266   -5549.638191055266   24919.212136690592  -31548.912600881882    1080.062273136025 
 4862000   -5524.565602627226   -5524.565602627226   24953.014574709036  -31549.886890594178    1072.306713257918 
 4863000   -5525.974969792191   -5525.974969792191   24959.961153993718  -31547.608795560580    1061.672671774671 
 4864000   -5467.773758667321   -5467.773758667321   25013.774917297364  -31545.081217780717    1063.532541816037 
 4865000   -5563.671154652522   -5563.671154652522   24865.106701857247  -31541.262062445265    1112.484205935498 
 4866000   -5571.464349672937   -5571.464349672937   24838.608956703327  -31547.934867159594    1137.861560783329 
 4867000   -5479.097084941270   -5479.097084941270   25043.841727479565  -31549.254175997408    1026.315363576573 
 4868000   -5513.996815274233   -5513.996815274233   24928.953921592576  -31546.051061663155    1103.100324796351 
 4869000   -5557.630207404916   -5557.630207404916   24870.438519094558  -31544.355614194646    1116.286887695174 
 4870000   -5553.289663301195   -5553.289663301195   24899.430408221906  -31550.982021417982    1098.261949894883 
 4871000   -5556.317941650585   -5556.317941650585   24915.360533741674  -31547.413331123073    1075.734855730812 
 4872000   -5515.280557967788   -5515.280557967788   24939.353503101782  -31542.534595272191    1087.900534202622 
 4873000   -5508.233994350565   -5508.233994350565   24954.808181441265  -31546.884567484019    1083.842391692187 
 4874000   -5471.419809031064   -5471.419809031064   24921.730290682808  -31543.958219774806    1150.808120060932 
 4875000   -5494.491031803802   -5494.491031803802   24937.396271277383  -31547.731099070512    1115.843795989324 
 4876000   -5599.969727608488   -5599.969727608488   24796.274584569877  -31548.922538356503    1152.678226178137 
 4877000   -5583.223738409692   -5583.223738409692   24838.049471525657  -31547.244263316454    1125.971053381106 
 4878000   -5581.099054550054   -5581.099054550054   24867.857294852940  -31548.801471176390    1099.845121773394 
 4879000   -5515.191163285690   -5515.191163285690   24953.852034660507  -31547.232360260266    1078.189162314074 
 4880000   -5564.907813892278   -5564.907813892278   24870.199117603290  -31546.505694531508    1111.398763035938 
 4881000   -5490.390222019752   -5490.390222019752   24959.579713683084  -31542.819518658889    1092.849582956055 
 4882000   -5539.674336327087   -5539.674336327087   24928.835101463555  -31549.443796078820    1080.934358288180 
 4883000   -5616.294635466402   -5616.294635466402   24862.491262672018  -31545.059005511117    1066.273107372699 
 4884000   -5463.502435419068   -5463.502435419068   25031.111537048077  -31548.817159162201    1054.203186695054 
 4885000   -5514.180664409105   -5514.180664409105   24944.636160197551  -31548.254156703515    1089.437332096864 
 4886000   -5525.482590848260   -5525.482590848260   24908.392856141618  -31546.128028275038    1112.252581285162 
 4887000   -5534.289445532409   -5534.289445532409   24967.288491198848  -31548.849024201430    1047.271087470172 
 4888000   -5528.268538134595   -5528.268538134595   24956.036220531158  -31547.283320738174    1062.978562072423 
 4889000   -5512.928662028582   -5512.928662028582   24898.709617605418  -31547.757816119749    1136.119536485746 
 4890000   -5563.933785175184   -5563.933785175184   24901.084679605501  -31548.722319965349    1083.703855184663 
 4891000   -5536.237026783077   -5536.237026783077   24840.310222089927  -31542.007328387837    1165.460079514830 
 4892000   -5531.066246662376   -5531.066246662376   24974.744606144395  -31547.352794399270    1041.541941592502 
 4893000   -5541.470737754316   -5541.470737754316   24888.766925518874  -31547.081694254055    1116.844030980868 
 4894000   -5514.884398742604   -5514.884398742604   24943.516931009137  -31550.316299910839    1091.914970159095 
 4895000   -5517.675645201311   -5517.675645201311   24954.097378452683  -31545.636361318255    1073.863337664259 
 4896000   -5502.120450583061   -5502.120450583061   24916.313863247662  -31544.922239337517    1126.487925506798 
 4897000   -5517.090915973684   -5517.090915973684   24926.893847538740  -31543.100505709997    1099.115742197575 
 4898000   -5578.336630776183   -5578.336630776183   24829.239254310902  -31547.380878430002    1139.804993342917 
 4899000   -5481.501668950288   -5481.501668950288   25062.438351480101  -31546.980660025605    1003.040639595218 
 4900000   -5541.695047329868   -5541.695047329868   24961.582309065041  -31547.458766588352    1044.181410193444 
 4901000   -5529.276984826876   -5529.276984826876   24960.452154644212  -31545.560949155573    1055.831809684485 
 4902000   -5558.258189685217   -5558.258189685217   24910.537764356988  -31550.029954252313    1081.234000210109 
 4903000   -5471.504392014740   -5471.504392014740   25041.731138485171  -31544.331229814470    1031.095699314559 
 4904000   -5514.494198303866   -5514.494198303866   24897.295064988390  -31544.604873736480    1132.815610444222 
 4905000   -5505.531068115390   -5505.531068115390   24978.008603894472  -31543.387097482591    1059.847425472728 
 4906000   -5517.181431146928   -5517.181431146928   24965.534820559493  -31543.064696626407    1060.348444919985 
 4907000   -5555.061593421105   -5555.061593421105   24887.406955505525  -31546.371689376916    1103.903140450281 
 4908000   -5524.449108835546   -5524.449108835546   24944.661039487357  -31546.932149726690    1077.822001403792 
 4909000   -5440.806295244034   -5440.806295244034   24996.085640812547  -31544.041377236037    1107.149441179459 
 4910000   -5507.762824292888   -5507.762824292888   24922.099083240468  -31543.373732353659    1113.511824820303 
 4911000   -5570.601071306370   -5570.601071306370   24867.990567776633  -31548.237282454884    1109.645643371883 
 4912000   -5540.765767289042   -5540.765767289042   24879.713324764474  -31545.080806514543    1124.601714461025 
 4913000   -5466.155104108504   -5466.155104108504   25010.316018461970  -31546.583316197717    1070.112193627240 
 4914000   -5563.724698765389   -5563.724698765389   24839.812305050898  -31541.704087260779    1138.167083444495 
 4915000   -5500.035962235030   -5500.035962235030   24963.755763349214  -31546.818392564637    1083.026666980398 
 4916000   -5492.526351310051   -5492.526351310051   24942.545862206745  -31542.889464527536    1107.817251010738 
 4917000   -5498.144230266640   -5498.144230266640   25006.792039943524  -31543.502157656068    1038.565887445905 
 4918000   -5543.646126539963   -5543.646126539963   24874.401016814249  -31550.238701550399    1132.191558196184 
 4919000   -5501.335328618796   -5501.335328618796   24946.321439939857  -31545.123533785929    1097.466765227277 
 4920000   -5558.025208076248   -5558.025208076248   24862.353600653052  -31544.827210801293    1124.448402071996 
 4921000   -5533.801621036564   -5533.801621036564   24902.229148185790  -31545.692366987805    1109.661597765454 
 4922000   -5514.989359307518   -5514.989359307518   24892.922507258998  -31543.880560960955    1135.968694394443 
 4923000   -5516.360001964211   -5516.360001964211   24943.972198680134  -31544.917272868006    1084.585072223657 
 4924000   -5545.848258145594   -5545.848258145594   24899.654985296893  -31543.556289887714    1098.053046445227 
 4925000   -5490.098214892383   -5490.098214892383   25002.041869067398  -31544.514567774739    1052.374483814956 
 4926000   -5504.392797831148   -5504.392797831148   24956.823911504951  -31546.795855464406    1085.579146128313 
 4927000   -5529.081501177614   -5529.081501177614   24934.515756700002  -31549.285001559390    1085.687743681774 
 4928000   -5530.237358118098   -5530.237358118098   24919.962440232244  -31545.640889560946    1095.441091210603 
 4929000   -5490.849708015790   -5490.849708015790   24930.299022464413  -31545.986870320987    1124.838139840785 
 4930000   -5522.464517713222   -5522.464517713222   24982.151199610104  -31550.292228744391    1045.676511421064 
 4931000   -5582.865750114306   -5582.865750114306   24847.127438555704  -31549.005231173956    1119.012042503944 
 4932000   -5513.788834774263   -5513.788834774263   25007.854334958887  -31546.841336091849    1025.198166358696 
 4933000   -5484.428267043881   -5484.428267043881   24987.777987910049  -31547.322986513533    1075.116731559604 
 4934000   -5510.160222107072   -5510.160222107072   24917.555776385125  -31549.005436878488    1121.289438386296 
 4935000   -5528.081718757712   -5528.081718757712   24965.903904838684  -31545.111443052407    1051.125819456009 
 4936000   -5532.192791927631   -5532.192791927631   24883.570349160113  -31545.399499610070    1129.636358522330 
 4937000   -5569.579623408659   -5569.579623408659   24832.187665743546  -31543.854334333391    1142.087045181187 
 4938000   -5515.887363725371   -5515.887363725371   24938.296150661259  -31548.000991053454    1093.817476666825 
 4939000   -5502.228705986581   -5502.228705986581   24956.834166707558  -31546.280334133629    1087.217461439484 
 4940000   -5451.026867210392   -5451.026867210392   25008.257490683216  -31540.650730101916    1081.366372208307 
 4941000   -5540.075614307050   -5540.075614307050   24940.593158698110  -31547.654325814034    1066.985552808872 
 4942000   -5519.823238013145   -5519.823238013145   24944.856810991907  -31548.514166462766    1083.834117457715 
 4943000   -5544.538368071881   -5544.538368071881   24965.609419447152  -31549.605783346262    1039.457995827231 
 4944000   -5527.404879770766   -5527.404879770766   24907.287535977477  -31543.042813478547    1108.350397730307 
 4945000   -5535.544369557472   -5535.544369557472   24894.004627194372  -31545.335787816934    1115.786791065094 
 4946000   -5513.239777066934   -5513.239777066934   24934.350185392650  -31548.902455126041    1101.312492666452 
 4947000   -5531.361886274015   -5531.361886274015   24961.357193600084  -31550.137559720435    1057.418479846337 
 4948000   -5562.836189738238   -5562.836189738238   24849.157495977168  -31542.654970515592    1130.661284800189 
 4949000   -5524.047137104495   -5524.047137104495   24884.038316414862  -31543.872587201669    1135.787133682310 
 4950000   -5547.964234467268   -5547.964234467268   24945.227265666686  -31550.127375560132    1056.935875426177 
 4951000   -5492.400820674367   -5492.400820674367   24995.983428102561  -31545.721322800644    1057.337074023716 
 4952000   -5571.032648555345   -5571.032648555345   24879.431754799632  -31548.960920072299    1098.496516717322 
 4953000   -5532.627710331752   -5532.627710331752   24921.307558975124  -31544.482812178885    1090.547542872008 
 4954000   -5504.570094807816   -5504.570094807816   24893.382704557665  -31545.305487105477    1147.352687739995 
 4955000   -5582.574169073207   -5582.574169073207   24878.447261550224  -31547.973537155620    1086.952106532184 
 4956000   -5550.249092101854   -5550.249092101854   24822.607073352006  -31546.469126356606    1173.612960902743 
 4957000   -5468.537120759855   -5468.537120759855   25035.590025398931  -31543.515625780990    1039.388479622203 
 4958000   -5486.562832239426   -5486.562832239426   25055.551277950937  -31544.065784130878    1001.951673940519 
 4959000   -5511.092867819261   -5511.092867819261   24973.570554225647  -31545.121141397976    1060.457719353067 
 4960000   -5466.822118418953   -5466.822118418953   25095.473608929253  -31548.074244620107     985.778517271899 
 4961000   -5506.450480893665   -5506.450480893665   24959.879542803294  -31542.479245474380    1076.149221777424 
 4962000   -5516.670205492061   -5516.670205492061   24933.251919531191  -31546.234756538877    1096.312631515625 
 4963000   -5526.546541898995   -5526.546541898995   24946.123047351957  -31547.188457312353    1074.518868061396 
 4964000   -5454.997548353738   -5454.997548353738   25022.030234482965  -31540.263406977047    1063.235624140349 
 4965000   -5464.780136685509   -5464.780136685509   25037.742654840098  -31546.224043597671    1043.701252072063 
 4966000   -5501.546939316868   -5501.546939316868   24919.541879293531  -31546.391526479245    1125.302707868851 
 4967000   -5534.782731386214   -5534.782731386214   24925.989792594130  -31543.101580324190    1082.329056343845 
 4968000   -5562.340017619288   -5562.340017619288   24860.525260477218  -31545.420448922123    1122.555170825620 
 4969000   -5528.333270031049   -5528.333270031049   24962.838017943930  -31545.916658011061    1054.745370036082 
 4970000   -5537.025549314560   -5537.025549314560   24910.253377406560  -31545.413060498140    1098.134133777025 
 4971000   -5517.645580638080   -5517.645580638080   24911.435143007468  -31546.200236082055    1117.119512436507 
 4972000   -5532.878754886504   -5532.878754886504   24844.655468169738  -31543.095164999660    1165.560941943415 
 4973000   -5546.258747333370   -5546.258747333370   24978.142859353022  -31547.545052680955    1023.143445994561 
 4974000   -5513.459046165204   -5513.459046165204   24953.452044451660  -31547.640885080353    1080.729794463493 
 4975000   -5497.043836533590   -5497.043836533590   24944.441154770993  -31544.078426941207    1102.593435636622 
 4976000   -5540.332706186164   -5540.332706186164   24955.495229993689  -31541.268466835580    1045.440530655729 
 4977000   -5564.834355659088   -5564.834355659088   24838.608863587040  -31547.602444581284    1144.159225335156 
 4978000   -5543.096134293963   -5543.096134293963   24867.516798162022  -31545.451927107562    1134.838994651577 
 4979000   -5508.756678402908   -5508.756678402908   24902.671347020398  -31546.250176101490    1134.822150678184 
 4980000   -5545.705957252954   -5545.705957252954   24852.564543674827  -31543.633682911106    1145.363181983324 
 4981000   -5437.265531765166   -5437.265531765166   25042.467673221996  -31542.921457386383    1063.188252399219 
 4982000   -5473.473925205250   -5473.473925205250   24997.585843376881  -31542.586389735272    1071.526621153144 
 4983000   -5535.968944892069   -5535.968944892069   24944.775009028781  -31543.832896531690    1063.088942610840 
 4984000   -5578.503785469813   -5578.503785469813   24894.300507354550  -31545.489333997928    1072.685041173562 
 4985000   -5550.458574629753   -5550.458574629753   24870.297374894028  -31545.721181606954    1124.965232083177 
 4986000   -5505.991860995313   -5505.991860995313   24935.143653784915  -31545.846124796135    1104.710610015909 
 4987000   -5499.892504152838   -5499.892504152838   24960.962655916595  -31547.039021617678    1086.183861548246 
 4988000   -5478.916659586761   -5478.916659586761   24962.327244580687  -31539.173563081637    1097.929658914190 
 4989000   -5509.238506222970   -5509.238506222970   24960.174360650264  -31546.943751226612    1077.530884353373 
 4990000   -5505.782173861015   -5505.782173861015   24932.451221748051  -31544.536299090541    1106.302903481472 
 4991000   -5533.371622068276   -5533.371622068276   25028.662590107429  -31546.221109840473     984.186897664773 
 4992000   -5486.947176194029   -5486.947176194029   24980.778861512495  -31546.853727370388    1079.127689663865 
 4993000   -5526.448587107781   -5526.448587107781   24924.891610821054  -31543.447587259263    1092.107389330427 
 4994000   -5590.338776874203   -5590.338776874203   24808.918421914499  -31547.979806813542    1148.722608024840 
 4995000   -5621.121918645553   -5621.121918645553   24766.763024755393  -31543.492269134014    1155.607325733066 
 4996000   -5565.153231391359   -5565.153231391359   24839.003643567456  -31547.619383179084    1143.462508220263 
 4997000   -5503.387570026531   -5503.387570026531   24889.907568659393  -31547.374998451767    1154.079859765844 
 4998000   -5499.741807278700   -5499.741807278700   24956.929732583769  -31544.825815892702    1088.154276030229 
 4999000   -5505.703818493788   -5505.703818493788   24994.593088656169  -31544.816451940427    1044.519544790468 
 5000000   -5488.335988984494   -5488.335988984494   24975.947317529928  -31547.436521405871    1083.153214891452 
Loop time of 30.2251 on 8 procs for 5001 steps with 1503 atoms

Performance: 14.296 ns/day, 1.679 hours/ns, 165.458 timesteps/s
98.7% CPU use with 8 MPI tasks x 1 OpenMP threads

MPI task timing breakdown:
Section |  min time  |  avg time  |  max time  |%varavg| %total
---------------------------------------------------------------
Pair    | 0          | 0          | 0          |   0.0 |  0.00
Bond    | 0          | 0          | 0          |   0.0 |  0.00
Kspace  | 0          | 0          | 0          |   0.0 |  0.00
Neigh   | 0          | 0          | 0          |   0.0 |  0.00
Comm    | 0          | 0          | 0          |   0.0 |  0.00
Output  | 0          | 0          | 0          |   0.0 |  0.00
Modify  | 0          | 0          | 0          |   0.0 |  0.00
Other   |            | 30.23      |            |       |100.00

Nlocal:    187.875 ave 197 max 178 min
Histogram: 1 0 0 3 0 1 0 1 1 1
Nghost:    4577.75 ave 4639 max 4518 min
Histogram: 1 2 1 0 0 0 1 0 2 1
Neighs:    66741.9 ave 70373 max 63559 min
Histogram: 1 1 0 1 2 0 1 1 0 1

Total # of neighbors = 533935
Ave neighs/atom = 355.246
Ave special neighs/atom = 2
Neighbor list builds = 0
Dangerous builds = 0
Total wall time: 0:01:30
