LAMMPS (3 Mar 2020)
  using 1 OpenMP thread(s) per MPI task
Reading data file ...
  orthogonal box = (0 0 0) to (24 24 24)
  2 by 2 by 2 MPI processor grid
  reading atoms ...
  1503 atoms
  scanning bonds ...
  2 = max bonds/atom
  scanning angles ...
  1 = max angles/atom
  reading bonds ...
  1002 bonds
  reading angles ...
  501 angles
Finding 1-2 1-3 1-4 neighbors ...
  special bond factors lj:   0          0          0         
  special bond factors coul: 0          0          0         
  2 = max # of 1-2 neighbors
  1 = max # of 1-3 neighbors
  1 = max # of 1-4 neighbors
  2 = max # of special neighbors
  special bonds CPU = 0.00227414 secs
  read_data CPU = 0.00835999 secs
Setting atom values ...
  1 settings made for charge
Setting atom values ...
  2 settings made for charge
Finding SHAKE clusters ...
  0 = # of size 2 clusters
  0 = # of size 3 clusters
  0 = # of size 4 clusters
  501 = # of frozen angles
  find clusters CPU = 0.000389397 secs
PPPM initialization ...
  using 12-bit tables for long-range coulomb (src/kspace.cpp:332)
  G vector (1/distance) = 0.315108
  grid = 24 24 24
  stencil order = 5
  estimated absolute RMS force accuracy = 0.0017131
  estimated relative force accuracy = 5.15894e-06
  using double precision MKL FFT
  3d grid and FFT values/proc = 6859 1728
Neighbor list info ...
  update every 1 steps, delay 10 steps, check yes
  max neighbors/atom: 2000, page size: 100000
  master list distance cutoff = 12
  ghost atom cutoff = 12
  binsize = 6, bins = 4 4 4
  3 neighbor lists, perpetual/occasional/extra = 3 0 0
  (1) pair lj/cut/coul/long, perpetual, skip from (3)
      attributes: half, newton on
      pair build: skip
      stencil: none
      bin: none
  (2) pair lj/cut/coul/long/soft, perpetual, skip from (3)
      attributes: half, newton on
      pair build: skip
      stencil: none
      bin: none
  (3) neighbor class addition, perpetual
      attributes: half, newton on
      pair build: half/bin/newton
      stencil: half/bin/3d/newton
      bin: standard
Per MPI rank memory allocation (min/avg/max) = 9.724 | 9.725 | 9.726 Mbytes
Step TotEng PotEng E_coul E_long E_vdwl 
       0   -5508.347368341965   -5508.347368341965   25298.993507336159  -31823.992929651809    1016.652053973688 
    1000   -5427.650326168907   -5427.650326168907   25294.052662719485  -31827.601979271800    1105.898990383411 
    2000   -5541.661862016223   -5541.661862016223   25174.809763535308  -31829.050494100851    1112.578868549320 
    3000   -5495.740950746491   -5495.740950746491   25248.419362447617  -31820.022782853310    1075.862469659203 
    4000   -5628.278971546082   -5628.278971546082   25011.712241850284  -31827.947864382571    1187.956650986209 
    5000   -5494.226211123041   -5494.226211123041   25234.656908545163  -31825.853754135947    1096.970634467742 
    6000   -5520.298374342794   -5520.298374342794   25172.458397224931  -31827.900034722625    1135.143263154905 
    7000   -5509.237526794408   -5509.237526794408   25285.427269975473  -31824.533476157030    1029.868679387150 
    8000   -5484.827350796768   -5484.827350796768   25308.338163885339  -31830.531075739818    1037.365561057713 
    9000   -5482.326864343893   -5482.326864343893   25298.500183102253  -31826.236791201463    1045.409743755311 
   10000   -5537.176263135458   -5537.176263135458   25192.506756346997  -31825.217829991750    1095.534810509293 
   11000   -5566.887664641112   -5566.887664641112   25208.792706864340  -31829.297301087121    1053.616929581670 
   12000   -5504.568636388645   -5504.568636388645   25272.261181012094  -31829.746459014401    1052.916641613665 
   13000   -5559.230272410277   -5559.230272410277   25184.294031210316  -31826.418127309837    1082.893823689243 
   14000   -5496.976117807906   -5496.976117807906   25248.513847477567  -31829.185074806472    1083.695109520995 
   15000   -5554.974888788191   -5554.974888788191   25176.777086667233  -31832.870952071851    1101.118976616427 
   16000   -5537.945262908572   -5537.945262908572   25189.284253149777  -31831.320631146380    1104.091115088034 
   17000   -5551.791898663359   -5551.791898663359   25148.812305402316  -31833.566621791942    1132.962417726264 
   18000   -5553.830134028845   -5553.830134028845   25140.830653751706  -31823.315429187907    1128.654641407357 
   19000   -5452.980966081213   -5452.980966081213   25355.509621867866  -31822.853260940010    1014.362672990929 
   20000   -5581.726310640690   -5581.726310640690   25168.144014423226  -31831.051744645716    1081.181419581805 
   21000   -5490.923269005878   -5490.923269005878   25257.974892421957  -31830.899019504188    1082.000858076354 
   22000   -5551.924317110479   -5551.924317110479   25121.490279421534  -31832.820496905329    1159.405900373320 
   23000   -5520.333497946056   -5520.333497946056   25196.274806197729  -31824.879101615341    1108.270797471560 
   24000   -5426.401703764568   -5426.401703764568   25344.409468719889  -31829.078199274867    1058.267026790412 
   25000   -5427.176561684100   -5427.176561684100   25325.182808001886  -31821.009110873463    1068.649741187477 
   26000   -5499.419982483898   -5499.419982483898   25173.888820221633  -31829.644019860494    1156.335217154963 
   27000   -5548.334142224649   -5548.334142224649   25196.995217841344  -31827.260641596982    1081.931281530992 
   28000   -5588.781976516020   -5588.781976516020   25164.663291182667  -31826.607756708447    1073.162489009757 
   29000   -5547.632311787147   -5547.632311787147   25191.053180820789  -31829.864049402528    1091.178556794586 
   30000   -5541.638564740359   -5541.638564740359   25266.780407744838  -31830.241398448703    1021.822425963511 
   31000   -5538.793025392868   -5538.793025392868   25194.161715995855  -31830.304060709150    1097.349319320432 
   32000   -5566.971834608794   -5566.971834608794   25127.753071660336  -31826.841148601870    1132.116242332736 
   33000   -5505.085509242705   -5505.085509242705   25208.139934606501  -31827.721609358483    1114.496165509275 
   34000   -5497.290389384732   -5497.290389384732   25265.443781039001  -31831.281471734208    1068.547301310475 
   35000   -5510.039945832679   -5510.039945832679   25269.877158021573  -31826.178776269197    1046.261672414946 
   36000   -5491.064731633393   -5491.064731633393   25312.662123549948  -31831.604472936171    1027.877617752830 
   37000   -5533.067758905217   -5533.067758905217   25179.314698802766  -31828.410949236812    1116.028491528827 
   38000   -5576.489071150940   -5576.489071150940   25195.113483810390  -31832.114488977681    1060.511934016350 
   39000   -5551.075410470672   -5551.075410470672   25240.625467598260  -31828.620593310621    1036.919715241685 
   40000   -5530.237829587259   -5530.237829587259   25171.313819479001  -31825.427347677130    1123.875698610874 
   41000   -5521.480702692967   -5521.480702692967   25229.391704140337  -31829.583022153663    1078.710615320362 
   42000   -5497.369607588596   -5497.369607588596   25199.833617816374  -31828.301281173441    1131.098055768464 
   43000   -5558.207947643401   -5558.207947643401   25143.493765126237  -31828.530132841228    1126.828420071592 
   44000   -5568.136718525315   -5568.136718525315   25148.183417673961  -31830.620905227228    1114.300769027951 
   45000   -5564.306047156268   -5564.306047156268   25212.433872974034  -31828.036919223337    1051.296999093035 
   46000   -5519.369783251626   -5519.369783251626   25219.983234859777  -31827.300630790076    1087.947612678674 
   47000   -5545.315105283124   -5545.315105283124   25222.169524279230  -31829.025932613040    1061.541303050685 
   48000   -5605.010689146875   -5605.010689146875   25102.827556050775  -31833.045679402407    1125.207434204751 
   49000   -5483.620184851119   -5483.620184851119   25237.618097442457  -31824.583226559109    1103.344944265530 
   50000   -5451.290864502531   -5451.290864502531   25333.162065435445  -31825.608512707742    1041.155582769765 
   51000   -5551.785047469057   -5551.785047469057   25173.114601749341  -31827.508016940919    1102.608367722518 
   52000   -5510.607790329766   -5510.607790329766   25266.169797668899  -31830.946774809494    1054.169186810831 
   53000   -5578.173741081959   -5578.173741081959   25184.994688465096  -31828.048879223908    1064.880449676853 
   54000   -5507.927550246051   -5507.927550246051   25238.771429417488  -31825.367355728882    1078.668376065344 
   55000   -5497.580774873393   -5497.580774873393   25341.391579485826  -31827.164654070377     988.192299711162 
   56000   -5551.716853318354   -5551.716853318354   25159.380762477260  -31830.462422639019    1119.364806843408 
   57000   -5577.415155628812   -5577.415155628812   25166.704695805645  -31827.196580287975    1083.076728853518 
   58000   -5493.443470530052   -5493.443470530052   25264.468205039135  -31828.065817783063    1070.154142213881 
   59000   -5543.826545358406   -5543.826545358406   25204.673165358785  -31832.591881273944    1084.092170556755 
   60000   -5587.788174273486   -5587.788174273486   25141.269942412706  -31828.717531331571    1099.659414645374 
   61000   -5526.833613540464   -5526.833613540464   25222.594370014951  -31828.579267854922    1079.151284299507 
   62000   -5507.538416392712   -5507.538416392712   25212.184377433878  -31829.437877857610    1109.715084031018 
   63000   -5579.002191661821   -5579.002191661821   25161.481847086929  -31831.612854839688    1091.128816090944 
   64000   -5545.086552604786   -5545.086552604786   25240.673390151012  -31828.056719538756    1042.296776782956 
   65000   -5475.574874838338   -5475.574874838338   25320.126104859388  -31830.862958918038    1035.161979220313 
   66000   -5474.603134003104   -5474.603134003104   25268.849228493586  -31832.519136823212    1089.066774326525 
   67000   -5513.068045807675   -5513.068045807675   25242.594932040767  -31830.392007322884    1074.729029474441 
   68000   -5471.870392836670   -5471.870392836670   25254.577133030893  -31828.617321439557    1102.169795571994 
   69000   -5559.414355950135   -5559.414355950135   25142.028756171083  -31831.479922552880    1130.036810431660 
   70000   -5553.192630417532   -5553.192630417532   25154.325345493529  -31834.765832243058    1127.247856331997 
   71000   -5564.740354797865   -5564.740354797865   25183.326132872917  -31830.387281676482    1082.320794005700 
   72000   -5511.904355148028   -5511.904355148028   25270.894027443977  -31829.953494155729    1047.155111563721 
   73000   -5524.339115737155   -5524.339115737155   25250.692773209928  -31831.579441390855    1056.547552443769 
   74000   -5467.115302511931   -5467.115302511931   25303.556533206174  -31828.068630926999    1057.396795208894 
   75000   -5431.549096578790   -5431.549096578790   25376.415832515617  -31826.477192981805    1018.512263887399 
   76000   -5497.880955411711   -5497.880955411711   25302.237534488922  -31828.859516661429    1028.741026760793 
   77000   -5531.364142688581   -5531.364142688581   25205.349534652811  -31825.498687401385    1088.785010059995 
   78000   -5515.657140331343   -5515.657140331343   25156.784726852209  -31826.837860762225    1154.395993578672 
   79000   -5529.407064824391   -5529.407064824391   25092.807152661182  -31831.375225636777    1209.161008151206 
   80000   -5517.966980633813   -5517.966980633813   25195.119208519405  -31828.691548999519    1115.605359846299 
   81000   -5469.583384920174   -5469.583384920174   25341.277370078744  -31827.395227697914    1016.534472698998 
   82000   -5521.527073333364   -5521.527073333364   25189.077772108812  -31830.148534789751    1119.543689347572 
   83000   -5543.966260610006   -5543.966260610006   25198.809379129420  -31827.183566279589    1084.407926540163 
   84000   -5519.149313617912   -5519.149313617912   25220.482060133603  -31833.164572455862    1093.533198704345 
   85000   -5455.828527400583   -5455.828527400583   25305.394586005357  -31828.501562550817    1067.278449144874 
   86000   -5500.109169242936   -5500.109169242936   25272.469542716848  -31830.039952325544    1057.461240365760 
   87000   -5555.940684722005   -5555.940684722005   25183.727741417486  -31832.298047241144    1092.629621101652 
   88000   -5604.707600069796   -5604.707600069796   25071.615143758561  -31827.487508185983    1151.164764357628 
   89000   -5582.404948418218   -5582.404948418218   25132.922644878952  -31826.787944486110    1111.460351188943 
   90000   -5474.447898981132   -5474.447898981132   25260.987611553264  -31829.729659405006    1094.294148870606 
   91000   -5606.888119093626   -5606.888119093626   25134.814648279789  -31831.233230834860    1089.530463461439 
   92000   -5559.862084730870   -5559.862084730870   25160.775068792125  -31833.943423170938    1113.306269647943 
   93000   -5449.235429385561   -5449.235429385561   25305.874425549540  -31825.845342309687    1070.735487374586 
   94000   -5533.808515019537   -5533.808515019537   25214.358771504238  -31829.150828725411    1080.983542201637 
   95000   -5472.136494920403   -5472.136494920403   25240.206575544413  -31826.506950830775    1114.163880365960 
   96000   -5538.199163321537   -5538.199163321537   25218.661055761895  -31828.472030644793    1071.611811561362 
   97000   -5533.811930107826   -5533.811930107826   25249.985303199792  -31824.855233868446    1041.058000560827 
   98000   -5473.878073930158   -5473.878073930158   25351.567966643852  -31825.123137941497     999.677097367486 
   99000   -5540.135017662848   -5540.135017662848   25171.643206884226  -31828.034311748663    1116.256087201585 
  100000   -5526.469109067231   -5526.469109067231   25220.986415628126  -31828.165659547722    1080.710134852368 
  101000   -5509.227556855385   -5509.227556855385   25186.442205541374  -31826.094520835224    1130.424758438466 
  102000   -5514.138553715195   -5514.138553715195   25223.095443908118  -31829.439071745364    1092.205074122051 
  103000   -5567.434258157373   -5567.434258157373   25163.716114108211  -31833.928487472458    1102.778115206871 
  104000   -5543.094354341789   -5543.094354341789   25187.737160337121  -31831.614228442158    1100.782713763247 
  105000   -5584.753878875847   -5584.753878875847   25132.850501062232  -31830.337559018804    1112.733179080727 
  106000   -5495.903673674937   -5495.903673674937   25244.020613067907  -31826.483179706458    1086.558892963618 
  107000   -5528.500622149830   -5528.500622149830   25189.472682690575  -31831.882931913395    1113.909627072993 
  108000   -5521.282711998276   -5521.282711998276   25213.758531338619  -31825.418606039013    1090.377362702115 
  109000   -5636.262091494486   -5636.262091494486   25087.921006669058  -31833.186304057028    1109.003205893485 
  110000   -5534.614955277983   -5534.614955277983   25140.525670100586  -31833.368236726092    1158.227611347527 
  111000   -5582.319051502298   -5582.319051502298   25135.223217746032  -31828.936142807510    1111.393873559176 
  112000   -5478.916199249841   -5478.916199249841   25335.210013894550  -31830.867312595648    1016.741099451259 
  113000   -5523.393668588200   -5523.393668588200   25180.584983963043  -31828.277564513923    1124.298911962678 
  114000   -5524.704301088754   -5524.704301088754   25254.500923505868  -31830.489003727955    1051.283779133331 
  115000   -5538.782088943659   -5538.782088943659   25187.765729287137  -31831.178323211534    1104.630504980736 
  116000   -5544.852154063676   -5544.852154063676   25149.541274203788  -31827.140240776000    1132.746812508538 
  117000   -5531.393632684412   -5531.393632684412   25237.897998775086  -31824.205352546414    1054.913721086910 
  118000   -5544.650116665543   -5544.650116665543   25160.778511809498  -31824.207165177348    1118.778536702308 
  119000   -5598.918735208546   -5598.918735208546   25065.947458619779  -31829.227233854584    1164.361040026256 
  120000   -5528.700602331599   -5528.700602331599   25243.648955698558  -31828.987369512310    1056.637811482154 
  121000   -5483.510275882367   -5483.510275882367   25266.875325714354  -31832.395191632659    1082.009590035941 
  122000   -5534.355532278729   -5534.355532278729   25251.086545658389  -31834.138907832530    1048.696829895417 
  123000   -5511.419113114775   -5511.419113114775   25235.246001263789  -31828.647382805426    1081.982268426865 
  124000   -5412.671685119712   -5412.671685119712   25418.643725327049  -31825.876486129138     994.561075682378 
  125000   -5456.307256928732   -5456.307256928732   25333.726302480893  -31825.671650198536    1035.638090788907 
  126000   -5548.514602504103   -5548.514602504103   25148.997839766242  -31827.215894954945    1129.703452684595 
  127000   -5581.037074260475   -5581.037074260475   25163.116879054636  -31827.810234185399    1083.656280870286 
  128000   -5451.598026482312   -5451.598026482312   25347.586473463114  -31829.596327398798    1030.411827453375 
  129000   -5474.512872825770   -5474.512872825770   25367.186116354467  -31830.952161253561     989.253172073322 
  130000   -5473.972744451461   -5473.972744451461   25340.325346067093  -31823.654795751241    1009.356705232686 
  131000   -5535.508278608962   -5535.508278608962   25153.980646352516  -31829.660693383819    1140.171768422339 
  132000   -5519.919479337670   -5519.919479337670   25272.740135432752  -31828.614705870383    1035.955091099961 
  133000   -5495.010253101904   -5495.010253101904   25166.746665846396  -31827.438101379568    1165.681182431267 
  134000   -5524.043733451505   -5524.043733451505   25257.797518115858  -31828.782810119304    1046.941558551941 
  135000   -5573.133842359941   -5573.133842359941   25152.719731791836  -31833.891852629560    1108.038278477787 
  136000   -5498.665812018997   -5498.665812018997   25212.658589079652  -31829.236652639080    1117.912251540428 
  137000   -5552.601276540066   -5552.601276540066   25142.118337715954  -31831.775370804549    1137.055756548525 
  138000   -5482.518791283746   -5482.518791283746   25271.116921403227  -31826.699387734461    1073.063675047493 
  139000   -5462.482456968155   -5462.482456968155   25326.653336140804  -31830.832613913928    1041.696820804968 
  140000   -5490.285088271907   -5490.285088271907   25213.120650442219  -31826.634738294473    1123.228999580349 
  141000   -5498.713026228783   -5498.713026228783   25287.736876190538  -31831.256626461098    1044.806724041780 
  142000   -5481.901887917436   -5481.901887917436   25211.597549182778  -31828.973621749803    1135.474184649589 
  143000   -5579.472623704220   -5579.472623704220   25170.259833528293  -31830.127406580930    1080.394949348421 
  144000   -5590.694511646863   -5590.694511646863   25092.189603643063  -31830.897636193360    1148.013520903437 
  145000   -5467.403144976557   -5467.403144976557   25275.570196289802  -31827.145220524781    1084.171879258422 
  146000   -5621.773561122740   -5621.773561122740   25122.601752111288  -31830.566452077423    1086.191138843395 
  147000   -5521.428417732575   -5521.428417732575   25173.009534670338  -31830.210182048231    1135.772229645321 
  148000   -5476.600717164085   -5476.600717164085   25278.855132769240  -31828.521858120464    1073.066008187136 
  149000   -5572.906896994529   -5572.906896994529   25148.828008850265  -31826.643255901628    1104.908350056828 
  150000   -5577.877444368103   -5577.877444368103   25212.433049658412  -31832.105326961395    1041.794832934886 
  151000   -5493.379501339132   -5493.379501339132   25182.899051884786  -31830.781126431135    1154.502573207214 
  152000   -5516.421867991234   -5516.421867991234   25344.680548637847  -31829.525549384747     968.423132755669 
  153000   -5562.533326127268   -5562.533326127268   25117.681014216323  -31830.934023332255    1150.719682988662 
  154000   -5629.303099704204   -5629.303099704204   25084.997378837223  -31827.886793477493    1113.586314936066 
  155000   -5491.980005578887   -5491.980005578887   25239.700688950335  -31826.064179409394    1094.383484880169 
  156000   -5510.637169600403   -5510.637169600403   25217.470711810787  -31829.431023792862    1101.323142381675 
  157000   -5490.200005223429   -5490.200005223429   25264.193301367868  -31828.431195710276    1074.037889118981 
  158000   -5509.371467097215   -5509.371467097215   25279.511050398323  -31826.685063271496    1037.802545775955 
  159000   -5559.809428253491   -5559.809428253491   25154.219436012609  -31832.536809925747    1118.507945659646 
  160000   -5556.850006046992   -5556.850006046992   25205.520728488453  -31830.478848935134    1068.108114399688 
  161000   -5555.980202242936   -5555.980202242936   25139.850820178079  -31832.790633608452    1136.959611187440 
  162000   -5546.355062659270   -5546.355062659270   25160.868547987036  -31826.811955160050    1119.588344513744 
  163000   -5534.464153446846   -5534.464153446846   25139.203183968173  -31830.345903429163    1156.678566014142 
  164000   -5535.347658175280   -5535.347658175280   25194.372492768875  -31831.014354690487    1101.294203746333 
  165000   -5514.371285475718   -5514.371285475718   25269.283545499642  -31829.809899377015    1046.155068401652 
  166000   -5480.657359737805   -5480.657359737805   25305.475501191759  -31826.607039585622    1040.474178656057 
  167000   -5539.006307609397   -5539.006307609397   25239.043705535696  -31831.585338709257    1053.535325564165 
  168000   -5572.181775783585   -5572.181775783585   25199.878526146153  -31830.447275123581    1058.386973193848 
  169000   -5565.375239457393   -5565.375239457393   25160.469656246489  -31826.371198007542    1100.526302303660 
  170000   -5550.439993997297   -5550.439993997297   25147.610012449841  -31825.638212950027    1127.588206502892 
  171000   -5568.763980276577   -5568.763980276577   25096.441827156086  -31829.137426634927    1163.931619202267 
  172000   -5529.554763770248   -5529.554763770248   25234.764095448631  -31826.545555040564    1062.226695821689 
  173000   -5523.160126861749   -5523.160126861749   25186.886178960456  -31829.139860753723    1119.093554931517 
  174000   -5506.671269779315   -5506.671269779315   25213.066770699930  -31829.279201314293    1109.541160835050 
  175000   -5555.022005048693   -5555.022005048693   25197.713670368768  -31829.417598507098    1076.681923089633 
  176000   -5435.295713736457   -5435.295713736457   25356.278922685618  -31826.013305310233    1034.438668888155 
  177000   -5530.281968329909   -5530.281968329909   25233.870654058846  -31829.095109924092    1064.942487535336 
  178000   -5493.392207784349   -5493.392207784349   25252.834564156939  -31828.543979430964    1082.317207489679 
  179000   -5487.936838248588   -5487.936838248588   25323.873391078625  -31830.085951972684    1018.275722645470 
  180000   -5472.164792236603   -5472.164792236603   25256.293889503468  -31829.327363729637    1100.868681989565 
  181000   -5546.250416683706   -5546.250416683706   25188.182734015681  -31830.576217670063    1096.143066970674 
  182000   -5533.133055338520   -5533.133055338520   25211.215594163350  -31831.030903846273    1086.682254344402 
  183000   -5533.407955265673   -5533.407955265673   25173.494153060907  -31827.904083597201    1121.001975270623 
  184000   -5548.404698687591   -5548.404698687591   25163.309593511724  -31825.956968469571    1114.242676270256 
  185000   -5490.401875925520   -5490.401875925520   25264.371502800517  -31825.479872228694    1070.706493502657 
  186000   -5529.793693019146   -5529.793693019146   25137.834258485134  -31826.696786794913    1159.068835290633 
  187000   -5570.084823361223   -5570.084823361223   25162.098518420753  -31830.006611734989    1097.823269953018 
  188000   -5486.040212396652   -5486.040212396652   25302.661560885324  -31829.635661934048    1040.933888652069 
  189000   -5538.801045970846   -5538.801045970846   25202.891841384942  -31822.784604371638    1081.091717015849 
  190000   -5562.438913374510   -5562.438913374510   25062.637742920451  -31834.840101624548    1209.763445329588 
  191000   -5535.343504981392   -5535.343504981392   25173.806586610968  -31826.369314878270    1117.219223285912 
  192000   -5568.976152712825   -5568.976152712825   25158.051666079580  -31829.080476277752    1102.052657485347 
  193000   -5539.061612533205   -5539.061612533205   25222.852517712436  -31833.841349623548    1071.927219377908 
  194000   -5524.450585402232   -5524.450585402232   25168.065999736456  -31830.437821754284    1137.921236615595 
  195000   -5512.081411955398   -5512.081411955398   25272.377974522919  -31829.785282532604    1045.325896054292 
  196000   -5511.162226534136   -5511.162226534136   25157.442674628037  -31829.528620526307    1160.923719364134 
  197000   -5555.519313394634   -5555.519313394634   25206.708534927202  -31825.290458353007    1063.062610031170 
  198000   -5560.203749676813   -5560.203749676813   25184.083133708755  -31832.816232753456    1088.529349367886 
  199000   -5569.869253942070   -5569.869253942070   25177.989655758225  -31830.470480001837    1082.611570301545 
  200000   -5528.781696387829   -5528.781696387829   25188.260357678246  -31825.505333107118    1108.463279041043 
  201000   -5512.688535419053   -5512.688535419053   25225.576333755940  -31826.203119977254    1087.938250802262 
  202000   -5550.171760014462   -5550.171760014462   25195.141983586131  -31830.298773547285    1084.985029946694 
  203000   -5539.740246090721   -5539.740246090721   25189.897943397278  -31829.960229276869    1100.322039788868 
  204000   -5482.631509845844   -5482.631509845844   25265.666010574027  -31828.869276866368    1080.571756446497 
  205000   -5588.225219141084   -5588.225219141084   25079.507363935525  -31827.652162039401    1159.919578962796 
  206000   -5560.301760448445   -5560.301760448445   25207.030880737009  -31829.707256647667    1062.374615462208 
  207000   -5471.181790860515   -5471.181790860515   25304.021609884439  -31831.643157174651    1056.439756429701 
  208000   -5532.923107711005   -5532.923107711005   25205.573125951712  -31830.572283891073    1092.076050228360 
  209000   -5489.553535744297   -5489.553535744297   25221.370938403357  -31825.941572313237    1115.017098165585 
  210000   -5523.305840592730   -5523.305840592730   25164.083472295675  -31831.424291908854    1144.034979020451 
  211000   -5559.084064897008   -5559.084064897008   25215.256821477866  -31830.407957605752    1056.067071230873 
  212000   -5537.984833969753   -5537.984833969753   25120.544852037805  -31834.984110644775    1176.454424637219 
  213000   -5546.709865245946   -5546.709865245946   25183.431779078506  -31830.407932227317    1100.266287902867 
  214000   -5557.496372105339   -5557.496372105339   25200.225843042539  -31827.673810349221    1069.951595201343 
  215000   -5550.180577825238   -5550.180577825238   25208.536242059548  -31830.061106734429    1071.344286849639 
  216000   -5599.766712841694   -5599.766712841694   25144.822074863849  -31832.312130424645    1087.723342719097 
  217000   -5491.024034511778   -5491.024034511778   25249.763083472455  -31828.026982302003    1087.239864317772 
  218000   -5547.630231753883   -5547.630231753883   25286.357371361584  -31831.217270033601     997.229666918133 
  219000   -5562.315916198288   -5562.315916198288   25139.776058218431  -31828.596976328419    1126.505001911700 
  220000   -5533.603887463178   -5533.603887463178   25189.228645253694  -31833.990142254203    1111.157609537333 
  221000   -5520.408885379249   -5520.408885379249   25213.289246820095  -31825.624300388277    1091.926168188934 
  222000   -5576.746936382966   -5576.746936382966   25138.986362137955  -31832.115136770473    1116.381838249555 
  223000   -5548.205619900964   -5548.205619900964   25137.078438921191  -31833.415871563157    1148.131812741005 
  224000   -5575.762796478892   -5575.762796478892   25156.167531175830  -31829.833798336258    1097.903470681535 
  225000   -5487.654720108996   -5487.654720108996   25244.718206665792  -31830.344489726322    1097.971562951535 
  226000   -5597.725914835784   -5597.725914835784   25106.562572218601  -31830.920452362516    1126.631965308128 
  227000   -5518.996046468128   -5518.996046468128   25225.567850682921  -31832.426843064502    1087.862945913452 
  228000   -5501.253709161017   -5501.253709161017   25288.229711875974  -31828.280514615810    1038.797093578820 
  229000   -5546.346643048859   -5546.346643048859   25204.475415900597  -31829.485908507035    1078.663849557576 
  230000   -5478.140120547378   -5478.140120547378   25269.535576891722  -31829.709934651950    1082.034237212852 
  231000   -5496.025588108692   -5496.025588108692   25229.319721030122  -31827.740412779836    1102.395103641020 
  232000   -5493.674830089058   -5493.674830089058   25234.673485887452  -31829.755335784695    1101.407019808191 
  233000   -5558.736145479961   -5558.736145479961   25197.638799891232  -31827.857409249806    1071.482463878616 
  234000   -5491.996680077747   -5491.996680077747   25244.567063397924  -31825.916234572687    1089.352491097015 
  235000   -5517.170164642208   -5517.170164642208   25222.574544296993  -31827.720699099689    1087.975990160488 
  236000   -5517.597896026487   -5517.597896026487   25225.516492537921  -31826.297275157689    1083.182886593278 
  237000   -5537.339109311757   -5537.339109311757   25180.787623976183  -31829.768375631011    1111.641642343067 
  238000   -5466.749333772299   -5466.749333772299   25300.979360350037  -31830.451528474383    1062.722834352047 
  239000   -5517.407423625660   -5517.407423625660   25272.400368843555  -31832.555034429159    1042.747241959943 
  240000   -5504.588901344730   -5504.588901344730   25268.843836424203  -31832.430220708113    1058.997482939173 
  241000   -5576.323264631348   -5576.323264631348   25140.394938097485  -31830.064699916496    1113.346497187661 
  242000   -5404.362779193463   -5404.362779193463   25438.791582159294  -31822.975755518914     979.821394166157 
  243000   -5456.684867982654   -5456.684867982654   25245.185735382256  -31829.585057774741    1127.714454409833 
  244000   -5470.518799622172   -5470.518799622172   25267.499710310090  -31829.027944812915    1091.009434880656 
  245000   -5476.465890860083   -5476.465890860083   25326.087240727615  -31827.689340004843    1025.136208417146 
  246000   -5500.902399365656   -5500.902399365656   25264.352685710830  -31830.209642668589    1064.954557592105 
  247000   -5487.671927222775   -5487.671927222775   25347.306446776784  -31829.612129172190     994.633755172627 
  248000   -5564.289426975611   -5564.289426975611   25142.973052275935  -31829.291819193273    1122.029339941726 
  249000   -5445.499220157017   -5445.499220157017   25341.644273033857  -31828.782669292774    1041.639176101905 
  250000   -5576.438836181806   -5576.438836181806   25178.835093207090  -31828.462963844540    1073.189034455645 
  251000   -5497.736007821495   -5497.736007821495   25149.233450415311  -31831.736803916345    1184.767345679542 
  252000   -5550.617275113116   -5550.617275113116   25155.039113643899  -31827.288186679139    1121.631797922124 
  253000   -5569.149009117755   -5569.149009117755   25202.450575009490  -31823.996753516316    1052.397169389075 
  254000   -5568.898084553493   -5568.898084553493   25175.855636976008  -31830.956102386728    1086.202380857226 
  255000   -5565.940359554668   -5565.940359554668   25182.241395844219  -31834.318740658662    1086.136985259775 
  256000   -5485.331395360470   -5485.331395360470   25249.988354861118  -31828.596120893144    1093.276370671560 
  257000   -5472.377284733961   -5472.377284733961   25361.114249650760  -31826.670136358549     993.178601973826 
  258000   -5601.616514929774   -5601.616514929774   25130.828924105816  -31828.401443059440    1095.956004023855 
  259000   -5560.385762361009   -5560.385762361009   25152.924379048796  -31830.537658408248    1117.227516998443 
  260000   -5526.832831875239   -5526.832831875239   25136.504516812813  -31825.987046565278    1162.649697877229 
  261000   -5543.026579516205   -5543.026579516205   25250.487423223047  -31825.926796196465    1032.412793457213 
  262000   -5511.916874749379   -5511.916874749379   25259.326424971885  -31831.230283807719    1059.986984086456 
  263000   -5619.666193100828   -5619.666193100828   25134.497856792936  -31832.071178910752    1077.907129016990 
  264000   -5574.152312219652   -5574.152312219652   25139.371589873434  -31826.480350820362    1112.956448727279 
  265000   -5550.232462230084   -5550.232462230084   25131.629523482559  -31830.418210075481    1148.556224362836 
  266000   -5555.548225955834   -5555.548225955834   25102.012515810005  -31830.604931984195    1173.044190218353 
  267000   -5499.457871819635   -5499.457871819635   25270.329602321392  -31827.934863967308    1058.147389826281 
  268000   -5549.673111864256   -5549.673111864256   25198.936932169607  -31828.204777696101    1079.594733662243 
  269000   -5551.463822572947   -5551.463822572947   25158.946050963910  -31822.851532396147    1112.441658859293 
  270000   -5529.329148165485   -5529.329148165485   25202.185530834417  -31833.679418244086    1102.164739244188 
  271000   -5498.841431515135   -5498.841431515135   25322.493852920699  -31830.061799723964    1008.726515288133 
  272000   -5476.870373522208   -5476.870373522208   25347.389554181769  -31831.096331159646    1006.836403455669 
  273000   -5532.058190455922   -5532.058190455922   25148.108890777967  -31823.481842367753    1143.314761133865 
  274000   -5470.101061473488   -5470.101061473488   25273.455716828874  -31825.424753942189    1081.867975639825 
  275000   -5534.570375715259   -5534.570375715259   25232.161351253100  -31828.465707254945    1061.733980286589 
  276000   -5470.821084015533   -5470.821084015533   25340.764837627787  -31825.201231700961    1013.615310057639 
  277000   -5555.585017697547   -5555.585017697547   25146.664217325888  -31827.833831528918    1125.584596505484 
  278000   -5527.770041075939   -5527.770041075939   25231.879770398184  -31831.563492335197    1071.913680861074 
  279000   -5520.391883166976   -5520.391883166976   25265.497489384245  -31825.892133636484    1040.002761085259 
  280000   -5512.726264599172   -5512.726264599172   25171.704409964059  -31827.986398693043    1143.555724129815 
  281000   -5458.036255394996   -5458.036255394996   25317.372446898182  -31828.794303994375    1053.385601701194 
  282000   -5539.730549142521   -5539.730549142521   25294.999067053308  -31832.122166658559     997.392550462730 
  283000   -5520.781852290569   -5520.781852290569   25287.557536019573  -31828.127199504484    1019.787811194341 
  284000   -5477.240953045701   -5477.240953045701   25235.074186253041  -31826.660075331100    1114.344936032358 
  285000   -5526.375088007870   -5526.375088007870   25200.409742412958  -31830.858978149805    1104.074147728975 
  286000   -5576.317364082552   -5576.317364082552   25112.605104509472  -31826.090385055606    1137.167916463580 
  287000   -5593.182469666692   -5593.182469666692   25119.380211605578  -31830.072694512051    1117.510013239782 
  288000   -5479.802513156905   -5479.802513156905   25297.633443614839  -31826.396669657664    1048.960712885922 
  289000   -5522.990143381787   -5522.990143381787   25231.527910747034  -31829.786023421417    1075.267969292594 
  290000   -5510.344362472875   -5510.344362472875   25170.489062298853  -31828.313968443996    1147.480543672268 
  291000   -5529.247550109965   -5529.247550109965   25226.543062139204  -31831.987164202106    1076.196551952934 
  292000   -5474.907484853495   -5474.907484853495   25337.124418817264  -31827.192521016710    1015.160617345955 
  293000   -5549.944535592491   -5549.944535592491   25148.877714698981  -31833.577327222341    1134.755076930873 
  294000   -5562.135820018681   -5562.135820018681   25116.241585271542  -31829.198243048031    1150.820837757808 
  295000   -5543.001206857898   -5543.001206857898   25225.443868332626  -31831.429337925878    1062.984262735353 
  296000   -5547.663531044120   -5547.663531044120   25173.694149733958  -31828.858117378822    1107.500436600745 
  297000   -5546.557475677517   -5546.557475677517   25192.836061530852  -31828.046429892260    1088.652892683889 
  298000   -5502.091789088678   -5502.091789088678   25192.095902661767  -31831.866649303149    1137.678957552703 
  299000   -5482.594949831309   -5482.594949831309   25298.880358758332  -31831.982027810231    1050.506719220593 
  300000   -5521.822951644866   -5521.822951644866   25145.212553146412  -31828.731206455672    1161.695701664393 
  301000   -5507.084099115164   -5507.084099115164   25138.151088651066  -31821.592514540811    1176.357326774577 
  302000   -5463.575781248888   -5463.575781248888   25194.125924106484  -31824.044427643152    1166.342722287778 
  303000   -5553.477431077081   -5553.477431077081   25162.060470520762  -31832.462509975590    1116.924608377750 
  304000   -5527.614959854440   -5527.614959854440   25178.493355474737  -31828.052083625949    1121.943768296773 
  305000   -5553.501569324799   -5553.501569324799   25198.199980687954  -31829.879378902988    1078.177828890238 
  306000   -5519.679085320735   -5519.679085320735   25256.177170756331  -31829.492281267907    1053.636025190842 
  307000   -5571.218700049729   -5571.218700049729   25156.897861190690  -31827.385252642998    1099.268691402578 
  308000   -5498.677548909891   -5498.677548909891   25227.187141948372  -31824.419019638346    1098.554328780082 
  309000   -5579.357149430358   -5579.357149430358   25120.684202319429  -31831.762008305199    1131.720656555415 
  310000   -5607.591999397446   -5607.591999397446   25084.737507707516  -31831.186566938177    1138.857059833214 
  311000   -5572.659490788032   -5572.659490788032   25216.680077875739  -31829.593264344807    1040.253695681032 
  312000   -5546.499519228932   -5546.499519228932   25151.979761297847  -31832.403642441230    1133.924361914453 
  313000   -5528.467019094514   -5528.467019094514   25253.224600173140  -31829.751669834761    1048.060050567106 
  314000   -5468.696109267530   -5468.696109267530   25231.024715544612  -31827.924180523249    1128.203355711101 
  315000   -5519.116287198787   -5519.116287198787   25208.165527066856  -31828.126236112315    1100.844421846672 
  316000   -5492.441500978686   -5492.441500978686   25225.866736452866  -31832.354683337682    1114.046445906128 
  317000   -5504.055740913285   -5504.055740913285   25244.804514385145  -31831.159423008648    1082.299167710220 
  318000   -5553.852451860676   -5553.852451860676   25169.146484877332  -31826.526591116046    1103.527654378038 
  319000   -5543.462276039230   -5543.462276039230   25202.440419916842  -31832.063588413366    1086.160892457294 
  320000   -5480.418935057332   -5480.418935057332   25359.549373889786  -31824.625903168500     984.657594221386 
  321000   -5529.570283014094   -5529.570283014094   25175.658149874860  -31831.817720876097    1126.589287987141 
  322000   -5513.164647466758   -5513.164647466758   25201.083134032837  -31826.736160955094    1112.488379455503 
  323000   -5501.629620218253   -5501.629620218253   25214.705616087675  -31826.585446614674    1110.250210308745 
  324000   -5491.381806104848   -5491.381806104848   25284.201070937517  -31831.962921899390    1056.380044857028 
  325000   -5483.924253933219   -5483.924253933219   25251.461623432049  -31827.529366604474    1092.143489239202 
  326000   -5513.414007841355   -5513.414007841355   25180.827014493807  -31830.099778049447    1135.858755714286 
  327000   -5496.328892276648   -5496.328892276648   25320.271230632861  -31828.745844324312    1012.145721414801 
  328000   -5503.269436833103   -5503.269436833103   25231.563090752046  -31831.076713102993    1096.244185517842 
  329000   -5569.017892428968   -5569.017892428968   25183.128305481398  -31830.648675884833    1078.502477974471 
  330000   -5515.315803825375   -5515.315803825375   25218.356280633307  -31831.555918381193    1097.883833922512 
  331000   -5523.542182774108   -5523.542182774108   25235.648103891326  -31831.244232337296    1072.053945671866 
  332000   -5465.268638022175   -5465.268638022175   25301.507514682871  -31830.112450522600    1063.336297817550 
  333000   -5546.654363792535   -5546.654363792535   25209.034369099325  -31828.138493571998    1072.449760680137 
  334000   -5519.987268437286   -5519.987268437286   25213.845925664020  -31831.275783226964    1097.442589125659 
  335000   -5565.911141114178   -5565.911141114178   25102.068520801680  -31827.910984575938    1159.931322660080 
  336000   -5545.891039624799   -5545.891039624799   25140.740024983759  -31833.279803760674    1146.648739152113 
  337000   -5502.880883301030   -5502.880883301030   25299.446424174264  -31825.586147045371    1023.258839570076 
  338000   -5557.723936665483   -5557.723936665483   25205.857495369375  -31832.091097897206    1068.509665862350 
  339000   -5515.331168938799   -5515.331168938799   25221.572072535997  -31834.141526017622    1097.238284542821 
  340000   -5455.555859720491   -5455.555859720491   25311.127662122890  -31826.220932220091    1059.537410376712 
  341000   -5468.017599481303   -5468.017599481303   25287.626601654323  -31827.673577628084    1072.029376492456 
  342000   -5489.909441226402   -5489.909441226402   25224.252680787704  -31827.914378095025    1113.752256080920 
  343000   -5543.487922734166   -5543.487922734166   25209.608020347972  -31828.068036856937    1074.972093774803 
  344000   -5576.193828255491   -5576.193828255491   25149.553622815074  -31827.599368147712    1101.851917077141 
  345000   -5479.898559395759   -5479.898559395759   25343.024223213120  -31833.238199946903    1010.315417338028 
  346000   -5512.748704576690   -5512.748704576690   25187.911778998096  -31830.041621801120    1129.381138226335 
  347000   -5471.704942168224   -5471.704942168224   25271.334642601920  -31825.679200277351    1082.639615507208 
  348000   -5574.505379030332   -5574.505379030332   25144.595285381347  -31829.855515804109    1110.754851392434 
  349000   -5576.875125671340   -5576.875125671340   25161.535121735160  -31831.613474238748    1093.203226832248 
  350000   -5465.679304982241   -5465.679304982241   25317.431272724272  -31828.999823513510    1045.889245806994 
  351000   -5519.594917862407   -5519.594917862407   25262.507937144124  -31828.963366161348    1046.860511154816 
  352000   -5523.786219119786   -5523.786219119786   25200.852214393864  -31828.840070496881    1104.201636983225 
  353000   -5497.376387152137   -5497.376387152137   25224.348532825315  -31829.869545748956    1108.144625771500 
  354000   -5481.073588106694   -5481.073588106694   25206.398468459338  -31825.116999478210    1137.644942912178 
  355000   -5572.190425390396   -5572.190425390396   25101.265570287389  -31827.211801498863    1153.755805821078 
  356000   -5527.914286988973   -5527.914286988973   25189.964920897262  -31830.067740204740    1112.188532318501 
  357000   -5571.847342447883   -5571.847342447883   25121.240116001747  -31832.406897426430    1139.319438976804 
  358000   -5571.975009653586   -5571.975009653586   25125.082006679317  -31830.976183736988    1133.919167404084 
  359000   -5442.376465381807   -5442.376465381807   25387.382891293055  -31825.067038087476     995.307681412618 
  360000   -5558.595092944968   -5558.595092944968   25114.531623246643  -31833.279812380588    1160.153096188974 
  361000   -5563.713868833860   -5563.713868833860   25151.710476677348  -31829.459439925886    1114.035094414675 
  362000   -5590.837212414313   -5590.837212414313   25099.490603649174  -31833.732017188726    1143.404201125245 
  363000   -5597.090532969607   -5597.090532969607   25080.802425335707  -31833.465419530588    1155.572461225275 
  364000   -5555.664561945021   -5555.664561945021   25128.560955993598  -31833.264666551273    1149.039148612654 
  365000   -5602.393984375354   -5602.393984375354   25024.786528632212  -31829.783873429136    1202.603360421568 
  366000   -5602.966278195068   -5602.966278195068   25078.289696738335  -31831.834776325570    1150.578801392167 
  367000   -5503.718233519689   -5503.718233519689   25263.799208646418  -31827.511914782306    1059.994472616203 
  368000   -5581.869766483116   -5581.869766483116   25114.601321308182  -31834.166758122505    1137.695670331206 
  369000   -5498.168235248042   -5498.168235248042   25225.109920113948  -31830.513401842014    1107.235246480024 
  370000   -5573.031150699848   -5573.031150699848   25141.202502363936  -31831.462269803575    1117.228616739785 
  371000   -5579.057340068637   -5579.057340068637   25136.377015950857  -31833.839168891875    1118.404812872378 
  372000   -5559.232368802892   -5559.232368802892   25187.046804176352  -31823.284769823025    1077.005596843775 
  373000   -5506.757618060848   -5506.757618060848   25283.439795420054  -31832.144795104683    1041.947381623780 
  374000   -5574.993087153649   -5574.993087153649   25145.373588277969  -31828.909515935145    1108.542840503524 
  375000   -5510.713778251280   -5510.713778251280   25285.776575760505  -31827.804325256078    1031.313971244293 
  376000   -5515.717992059315   -5515.717992059315   25230.593951766201  -31830.127838456148    1083.815894630637 
  377000   -5498.760601715461   -5498.760601715461   25216.951540198268  -31827.506613468016    1111.794471554287 
  378000   -5522.038828665063   -5522.038828665063   25229.561538466573  -31832.059890574787    1080.459523443149 
  379000   -5546.877328891627   -5546.877328891627   25240.134842202904  -31829.227780897250    1042.215609802713 
  380000   -5563.613018947835   -5563.613018947835   25165.337412936788  -31830.721378413604    1101.770946528982 
  381000   -5613.959956174931   -5613.959956174931   25145.090693771715  -31830.655791646550    1071.605141699907 
  382000   -5580.601543926132   -5580.601543926132   25156.827981328610  -31830.474311225174    1093.044785970435 
  383000   -5531.063116050329   -5531.063116050329   25203.792933304059  -31830.289857755652    1095.433808401263 
  384000   -5508.489106409099   -5508.489106409099   25258.952731422112  -31824.658218179880    1057.216380348669 
  385000   -5533.804793427680   -5533.804793427680   25234.770065098517  -31831.513553154877    1062.938694628680 
  386000   -5568.727349293909   -5568.727349293909   25121.017965859792  -31826.205667731519    1136.460352577819 
  387000   -5492.516090952598   -5492.516090952598   25214.286221695795  -31828.357163486882    1121.554850838494 
  388000   -5517.509879066714   -5517.509879066714   25218.813349544733  -31829.047855994719    1092.724627383277 
  389000   -5511.023772237968   -5511.023772237968   25258.062524014749  -31831.081514825662    1061.995218572948 
  390000   -5551.798755377549   -5551.798755377549   25131.897680730723  -31831.133079478164    1147.436643369892 
  391000   -5547.512175096632   -5547.512175096632   25156.676885146619  -31828.055523372797    1123.866463129543 
  392000   -5508.008345847982   -5508.008345847982   25244.470791335509  -31830.517205585667    1078.038068402175 
  393000   -5524.106698118962   -5524.106698118962   25237.259399846240  -31829.149141789159    1067.783043823959 
  394000   -5500.425794413670   -5500.425794413670   25228.365070443040  -31829.317984144996    1100.527119288289 
  395000   -5507.885267766123   -5507.885267766123   25221.968836330030  -31825.038466993752    1095.184362897598 
  396000   -5501.246655159004   -5501.246655159004   25199.517599175691  -31824.679625744073    1123.915371409377 
  397000   -5570.021169158823   -5570.021169158823   25134.264177599805  -31826.931767803620    1122.646421044990 
  398000   -5520.038304874888   -5520.038304874888   25233.569803828737  -31830.865293984025    1077.257185280398 
  399000   -5560.371122918012   -5560.371122918012   25193.949683122235  -31828.510327393669    1074.189521353420 
  400000   -5509.585043573024   -5509.585043573024   25204.716820240290  -31829.105152306387    1114.803288493074 
  401000   -5579.710587405061   -5579.710587405061   25108.512523666497  -31829.925830455621    1141.702719384063 
  402000   -5545.586279756655   -5545.586279756655   25230.650795956688  -31832.641705205850    1056.404629492506 
  403000   -5491.021847446660   -5491.021847446660   25253.427172262152  -31827.556776992307    1083.107757283495 
  404000   -5516.484551743364   -5516.484551743364   25139.782593797201  -31831.415121020185    1175.147975479618 
  405000   -5584.771271027905   -5584.771271027905   25145.666778448278  -31833.253903710702    1102.815854234520 
  406000   -5584.564028357887   -5584.564028357887   25092.821833976479  -31829.083278498034    1151.697416163664 
  407000   -5533.879591649020   -5533.879591649020   25182.748481891358  -31827.232282520275    1110.604208979895 
  408000   -5460.888941884899   -5460.888941884899   25298.580488585143  -31826.822997916242    1067.353567446203 
  409000   -5475.194312673539   -5475.194312673539   25301.274248991038  -31828.869846883284    1052.401285218707 
  410000   -5472.856620637562   -5472.856620637562   25306.595493968718  -31827.951839133329    1048.499724527051 
  411000   -5520.990792451656   -5520.990792451656   25223.036802974755  -31830.387358083568    1086.359762657162 
  412000   -5513.948775154531   -5513.948775154531   25210.811649397954  -31823.540059940628    1098.779635388146 
  413000   -5541.911186388283   -5541.911186388283   25199.829949063649  -31830.401750710658    1088.660615258731 
  414000   -5530.044133587809   -5530.044133587809   25262.488932069933  -31830.224102449323    1037.691036791579 
  415000   -5471.618869958493   -5471.618869958493   25305.569656512249  -31829.619161214647    1052.430634743902 
  416000   -5528.972442627739   -5528.972442627739   25223.034888588420  -31827.541139166300    1075.533807950143 
  417000   -5473.452538793128   -5473.452538793128   25214.140308430353  -31827.771461470322    1140.178614246840 
  418000   -5584.788287882209   -5584.788287882209   25157.627432216745  -31833.161773503096    1090.746053404143 
  419000   -5486.974398113070   -5486.974398113070   25229.501393421477  -31827.905437385318    1111.429645850772 
  420000   -5527.947231737868   -5527.947231737868   25232.251060638653  -31831.018921917035    1070.820629540512 
  421000   -5545.858792863666   -5545.858792863666   25150.601106193750  -31833.148519310893    1136.688620253472 
  422000   -5489.456595054817   -5489.456595054817   25266.107267733580  -31829.989444943381    1074.425582154988 
  423000   -5528.848694906403   -5528.848694906403   25168.397155029292  -31831.111429396708    1133.865579461008 
  424000   -5569.966625841993   -5569.966625841993   25229.578149308574  -31828.094731411536    1028.549956260965 
  425000   -5426.885971974913   -5426.885971974913   25386.643798948753  -31830.363292443213    1016.833521519550 
  426000   -5509.369609956640   -5509.369609956640   25219.859284109636  -31825.919190856839    1096.690296790563 
  427000   -5537.470309729830   -5537.470309729830   25189.545502639208  -31828.061250978335    1101.045438609298 
  428000   -5533.506720417612   -5533.506720417612   25151.478121679080  -31824.667915204591    1139.683073107896 
  429000   -5542.511533193752   -5542.511533193752   25182.595236208665  -31830.749194781700    1105.642425379284 
  430000   -5531.762005079374   -5531.762005079374   25234.007715750442  -31829.671220392138    1063.901499562321 
  431000   -5522.339927727608   -5522.339927727608   25182.487815130840  -31828.662758639275    1123.835015780826 
  432000   -5498.232071071281   -5498.232071071281   25314.946545866595  -31831.995513935926    1018.816896998051 
  433000   -5510.058484910049   -5510.058484910049   25234.540517163092  -31829.172962638233    1084.573960565091 
  434000   -5382.247255647013   -5382.247255647013   25414.668678361930  -31826.189201771431    1029.273267762493 
  435000   -5488.404774938870   -5488.404774938870   25291.482581798038  -31826.975720903392    1047.088364166488 
  436000   -5509.443035810171   -5509.443035810171   25233.009081068125  -31829.437554042914    1086.985437164622 
  437000   -5551.461567060767   -5551.461567060767   25146.607559566153  -31824.279780789177    1126.210654162256 
  438000   -5545.387569613849   -5545.387569613849   25160.015873604665  -31829.436122206564    1124.032678988050 
  439000   -5549.497930951147   -5549.497930951147   25198.860188895047  -31832.804577392293    1084.446457546099 
  440000   -5560.361511224808   -5560.361511224808   25123.391413146928  -31830.533775087541    1146.780850715808 
  441000   -5553.783034753455   -5553.783034753455   25179.178412110876  -31829.888799111541    1096.927352247213 
  442000   -5597.077574815467   -5597.077574815467   25144.985048560462  -31829.593124731153    1087.530501355221 
  443000   -5572.984257488457   -5572.984257488457   25092.444397426141  -31834.384534719127    1168.955879804529 
  444000   -5535.496370145735   -5535.496370145735   25208.676666869680  -31823.936461568028    1079.763424552613 
  445000   -5552.321173850523   -5552.321173850523   25185.362228728744  -31823.987874173068    1086.304471593800 
  446000   -5466.641173390635   -5466.641173390635   25239.985056029043  -31827.600758347220    1120.974528927540 
  447000   -5550.091157927036   -5550.091157927036   25229.012617158220  -31831.904746736091    1052.800971650834 
  448000   -5534.316988267714   -5534.316988267714   25208.213091423026  -31826.553989007731    1084.023909316991 
  449000   -5494.310273703988   -5494.310273703988   25261.315462630344  -31827.382262544605    1071.756526210273 
  450000   -5479.716849019147   -5479.716849019147   25309.176814747931  -31828.393853790032    1039.500190022952 
  451000   -5553.083568031569   -5553.083568031569   25168.137243394573  -31830.679078200097    1109.458266773961 
  452000   -5576.303076148422   -5576.303076148422   25067.345602504724  -31831.939700458915    1188.291021805766 
  453000   -5614.852536432958   -5614.852536432958   25099.242263035427  -31831.401713676161    1117.306914207777 
  454000   -5632.094983321738   -5632.094983321738   24994.304225030039  -31831.266517474010    1204.867309122237 
  455000   -5592.648361942156   -5592.648361942156   25084.644096079490  -31832.308517439636    1155.016059417989 
  456000   -5590.259821303596   -5590.259821303596   25132.796828356091  -31833.546824117220    1110.490174457536 
  457000   -5542.551649028919   -5542.551649028919   25198.598743781949  -31827.889736060170    1086.739343249303 
  458000   -5595.872739749153   -5595.872739749153   25151.830722571714  -31831.063011812705    1083.359549491835 
  459000   -5541.256685632281   -5541.256685632281   25218.672875791406  -31833.553050344712    1073.623488921023 
  460000   -5546.696037934493   -5546.696037934493   25163.296366243165  -31826.353039239246    1116.360635061592 
  461000   -5513.786091952235   -5513.786091952235   25242.224002284525  -31834.668866077234    1078.658771840473 
  462000   -5554.498461158539   -5554.498461158539   25166.973904885752  -31826.821516102005    1105.349150057713 
  463000   -5535.405235246526   -5535.405235246526   25194.162677062748  -31823.584043749503    1094.016131440230 
  464000   -5587.902116304784   -5587.902116304784   25149.694433513090  -31827.831062979265    1090.234513161387 
  465000   -5516.390300027015   -5516.390300027015   25343.852052525202  -31830.789697431530     970.547344879308 
  466000   -5571.303917411034   -5571.303917411034   25132.122899026421  -31831.096746753712    1127.669930316257 
  467000   -5510.980637540713   -5510.980637540713   25229.486134538209  -31828.988203076555    1088.521430997636 
  468000   -5588.198361733957   -5588.198361733957   25113.061497159950  -31833.824727573432    1132.564868679527 
  469000   -5541.325018896805   -5541.325018896805   25090.345357673825  -31829.154904679181    1197.484528108552 
  470000   -5566.549139916515   -5566.549139916515   25190.745407462513  -31831.614638668263    1074.320091289235 
  471000   -5520.734562286656   -5520.734562286656   25286.394374093474  -31828.163658581921    1021.034722201791 
  472000   -5529.773154679002   -5529.773154679002   25184.593806710545  -31828.748421135475    1114.381459745933 
  473000   -5498.694366100113   -5498.694366100113   25236.862587271004  -31829.808189743482    1094.251236372364 
  474000   -5537.678946100023   -5537.678946100023   25220.417777843802  -31827.805616571412    1069.708892627590 
  475000   -5571.215652378829   -5571.215652378829   25166.531684422058  -31829.770649261976    1092.023312461085 
  476000   -5479.894418939828   -5479.894418939828   25257.296073901798  -31824.846236348803    1087.655743507171 
  477000   -5481.027092810422   -5481.027092810422   25253.372947669392  -31829.104479745776    1094.704439265962 
  478000   -5602.464141377346   -5602.464141377346   25139.076246450088  -31828.424824807724    1086.884436980286 
  479000   -5511.136207299158   -5511.136207299158   25264.722289775666  -31829.175309813396    1053.316812738569 
  480000   -5575.797154680258   -5575.797154680258   25121.803787721103  -31834.829150680522    1137.228208279164 
  481000   -5603.681650483886   -5603.681650483886   25089.326880538287  -31832.100123791934    1139.091592769763 
  482000   -5543.950869247743   -5543.950869247743   25157.286748717874  -31824.543889208489    1123.306271242874 
  483000   -5541.827755405262   -5541.827755405262   25223.961994888268  -31826.727936776173    1060.938186482640 
  484000   -5527.257513611836   -5527.257513611836   25184.822677742421  -31829.026159836136    1116.945968481884 
  485000   -5544.903580587204   -5544.903580587204   25192.130834907355  -31830.980606186968    1093.946190692411 
  486000   -5462.664429553854   -5462.664429553854   25287.659655894375  -31833.158707709077    1082.834622260848 
  487000   -5528.775516317884   -5528.775516317884   25260.797058586752  -31828.987804205877    1039.415229301243 
  488000   -5507.324891729437   -5507.324891729437   25249.220066854388  -31830.880650923493    1074.335692339667 
  489000   -5508.162090492828   -5508.162090492828   25233.875403337923  -31827.145934034688    1085.108440203939 
  490000   -5508.344384254418   -5508.344384254418   25301.256674365879  -31829.350687803821    1019.749629183522 
  491000   -5515.351501034398   -5515.351501034398   25184.785122222296  -31826.558386517365    1126.421763260670 
  492000   -5573.858387358447   -5573.858387358447   25109.243435062610  -31829.662021735199    1146.560199314141 
  493000   -5541.915013157075   -5541.915013157075   25221.826399377169  -31829.181259524459    1065.439846990216 
  494000   -5522.082638655720   -5522.082638655720   25197.260836519246  -31830.440239775096    1111.096764600128 
  495000   -5548.466967150343   -5548.466967150343   25178.942570805219  -31828.679563509904    1101.270025554341 
  496000   -5599.296412423635   -5599.296412423635   25143.208946543491  -31835.297680777421    1092.792321810300 
  497000   -5544.483214041426   -5544.483214041426   25184.030238074640  -31824.959547627524    1096.446095511456 
  498000   -5523.050219635523   -5523.050219635523   25213.923084734313  -31831.067387059760    1094.094082689927 
  499000   -5548.068396668768   -5548.068396668768   25146.778040564535  -31831.018949205569    1136.172511972265 
  500000   -5526.801691722063   -5526.801691722063   25253.808001479221  -31826.199953557127    1045.590260355843 
  501000   -5561.880674446424   -5561.880674446424   25212.004604659924  -31828.472428583969    1054.587149477617 
  502000   -5522.320884673914   -5522.320884673914   25207.877156853610  -31829.775031168825    1099.576989641299 
  503000   -5507.006357448299   -5507.006357448299   25185.453467177154  -31830.981666731437    1138.521842105979 
  504000   -5550.809370160860   -5550.809370160860   25184.206946571259  -31831.294717870518    1096.278401138401 
  505000   -5499.668840653459   -5499.668840653459   25161.320315743436  -31827.530015641700    1166.540859244809 
  506000   -5590.939060777753   -5590.939060777753   25086.591790573504  -31829.962294092169    1152.431442740913 
  507000   -5520.417164814357   -5520.417164814357   25225.458237353614  -31829.943551859695    1084.068149691724 
  508000   -5517.535783860400   -5517.535783860400   25260.533669592416  -31830.487344808873    1052.417891356056 
  509000   -5519.060368166847   -5519.060368166847   25187.539946624882  -31824.010878235164    1117.410563443436 
  510000   -5590.437493529662   -5590.437493529662   25119.390691647794  -31829.749475270895    1119.921290093438 
  511000   -5478.500936426339   -5478.500936426339   25292.566399747921  -31824.987606868650    1053.920270694392 
  512000   -5521.778212862875   -5521.778212862875   25268.323991703714  -31829.146694431747    1039.044489865158 
  513000   -5500.037585079721   -5500.037585079721   25324.032705434285  -31830.637537072304    1006.567246558292 
  514000   -5510.591690660374   -5510.591690660374   25228.839351475250  -31832.232591450062    1092.801549314435 
  515000   -5504.745848492017   -5504.745848492017   25276.700164305759  -31832.204461152145    1050.758448354373 
  516000   -5485.359222329753   -5485.359222329753   25253.216679726658  -31830.073860723674    1091.497958667262 
  517000   -5569.639889825219   -5569.639889825219   25204.704456138224  -31830.171146490731    1055.826800527286 
  518000   -5503.655916265485   -5503.655916265485   25322.703376014768  -31830.350108899598    1003.990816619345 
  519000   -5509.243327678167   -5509.243327678167   25219.033364644733  -31830.951018665502    1102.674326342599 
  520000   -5542.161668207315   -5542.161668207315   25220.956965681056  -31829.974640390199    1066.856006501829 
  521000   -5491.453837397778   -5491.453837397778   25298.376811543290  -31825.666442282756    1035.835793341695 
  522000   -5589.550717938360   -5589.550717938360   25123.827034856426  -31831.278935492755    1117.901182697971 
  523000   -5540.312576952787   -5540.312576952787   25191.281932601411  -31829.837280790900    1098.242771236702 
  524000   -5587.453839658163   -5587.453839658163   25152.897917098395  -31832.321010835447    1091.969254078885 
  525000   -5580.860849389741   -5580.860849389741   25120.516696214116  -31830.111559877721    1128.734014273862 
  526000   -5529.432306442017   -5529.432306442017   25206.159596139871  -31828.727469035013    1093.135566453130 
  527000   -5502.451814862870   -5502.451814862870   25264.091147788440  -31831.897914188303    1065.354951536990 
  528000   -5569.393623133805   -5569.393623133805   25105.359853801194  -31831.211374344373    1156.457897409369 
  529000   -5571.074898490293   -5571.074898490293   25145.589156014750  -31833.055674417745    1116.391619912697 
  530000   -5568.586340118301   -5568.586340118301   25150.865947986946  -31828.356774787320    1108.904486682076 
  531000   -5589.568704710702   -5589.568704710702   25106.436341644992  -31829.534408425458    1133.529362069760 
  532000   -5522.056752515447   -5522.056752515447   25248.960372464982  -31831.293764135517    1060.276639155086 
  533000   -5560.216566953510   -5560.216566953510   25215.995458422985  -31830.054466153008    1053.842440776513 
  534000   -5465.574280932964   -5465.574280932964   25291.345720031863  -31832.536319246436    1075.616318281606 
  535000   -5536.575521662300   -5536.575521662300   25213.669130530368  -31833.152415127573    1082.907762934902 
  536000   -5547.670503520887   -5547.670503520887   25209.686377185692  -31830.950328100378    1073.593447393800 
  537000   -5568.940937137337   -5568.940937137337   25134.168891431600  -31831.674768612709    1128.564940043772 
  538000   -5515.143353893640   -5515.143353893640   25276.477089684689  -31830.463009353287    1038.842565774955 
  539000   -5507.397182189954   -5507.397182189954   25192.645600409058  -31829.003749261625    1128.960966662616 
  540000   -5506.524123512831   -5506.524123512831   25277.484522199891  -31834.305293853333    1050.296648140612 
  541000   -5548.359848845179   -5548.359848845179   25262.837469806960  -31828.177996336421    1016.980677684283 
  542000   -5542.585675987975   -5542.585675987975   25159.811873977924  -31833.120619832473    1130.723069866573 
  543000   -5488.562456695210   -5488.562456695210   25264.692687011931  -31829.775845113079    1076.520701405937 
  544000   -5548.939213734073   -5548.939213734073   25179.408475177624  -31828.140735694920    1099.793046783223 
  545000   -5509.220078203347   -5509.220078203347   25215.724998658898  -31826.010804183119    1101.065727320875 
  546000   -5499.862234898679   -5499.862234898679   25226.468758108407  -31825.684762076027    1099.353769068940 
  547000   -5409.139350604633   -5409.139350604633   25378.332200685199  -31826.443984050547    1038.972432760718 
  548000   -5461.349750417903   -5461.349750417903   25334.313642744888  -31827.286531537888    1031.623138375100 
  549000   -5453.676758744521   -5453.676758744521   25263.903665171209  -31826.731170592364    1109.150746676640 
  550000   -5461.612477924926   -5461.612477924926   25276.091298800471  -31829.127162838664    1091.423386113267 
  551000   -5502.064758516743   -5502.064758516743   25312.443857009905  -31830.996314618329    1016.487699091683 
  552000   -5555.494868355639   -5555.494868355639   25130.017988585623  -31829.170265979345    1143.657409038080 
  553000   -5510.237514278037   -5510.237514278037   25278.021454696638  -31829.594012255922    1041.335043281252 
  554000   -5594.647834220905   -5594.647834220905   25080.567321322589  -31829.520544173614    1154.305388630126 
  555000   -5539.817004699315   -5539.817004699315   25224.778965913654  -31828.203354399589    1063.607383786628 
  556000   -5493.668889536955   -5493.668889536955   25275.973031734720  -31831.041448259293    1061.399526987619 
  557000   -5571.527599033259   -5571.527599033259   25077.837359659046  -31831.445993429315    1182.081034737016 
  558000   -5506.963243454895   -5506.963243454895   25236.956561270756  -31830.185361075233    1086.265556349585 
  559000   -5568.701913251887   -5568.701913251887   25173.197610189069  -31832.125296361799    1090.225772920842 
  560000   -5547.792069017261   -5547.792069017261   25140.821020489162  -31830.779499911499    1142.166410405074 
  561000   -5584.090952223934   -5584.090952223934   25146.732166997826  -31832.631083826935    1101.807964605174 
  562000   -5573.716150932658   -5573.716150932658   25142.762540461215  -31829.983031294170    1113.504339900298 
  563000   -5564.999108759577   -5564.999108759577   25188.481932871669  -31831.909099610100    1078.428057978852 
  564000   -5499.834432287611   -5499.834432287611   25221.782865892557  -31825.623862625831    1104.006564445666 
  565000   -5491.989724739829   -5491.989724739829   25256.676026246078  -31829.567374597082    1080.901623611173 
  566000   -5489.844165100181   -5489.844165100181   25306.237129042027  -31828.329880542213    1032.248586400005 
  567000   -5586.819075933297   -5586.819075933297   25206.298273578082  -31831.911034835848    1038.793685324466 
  568000   -5493.965524052201   -5493.965524052201   25260.381214239605  -31827.794805082856    1073.448066791050 
  569000   -5474.517480473041   -5474.517480473041   25355.333338778877  -31826.451471060940     996.600651809024 
  570000   -5507.513761921651   -5507.513761921651   25244.072873602548  -31826.036358244855    1074.449722720657 
  571000   -5559.881447703749   -5559.881447703749   25119.588113071659  -31828.538706190851    1149.069145415444 
  572000   -5545.564600195215   -5545.564600195215   25179.421525128946  -31827.065836403035    1102.079711078874 
  573000   -5438.103729487637   -5438.103729487637   25342.499883409386  -31821.941779687339    1041.338166790315 
  574000   -5483.813257368533   -5483.813257368533   25231.255925068341  -31829.194347964891    1114.125165528018 
  575000   -5505.410473888936   -5505.410473888936   25260.526443497089  -31827.121441620260    1061.184524234232 
  576000   -5569.077239770369   -5569.077239770369   25163.481917837333  -31831.382692611329    1098.823535003630 
  577000   -5501.029493153041   -5501.029493153041   25311.893954477819  -31831.272929875780    1018.349482244918 
  578000   -5563.712110078159   -5563.712110078159   25168.266854107751  -31828.630476825871    1096.651512639959 
  579000   -5575.303817325945   -5575.303817325945   25133.730443731332  -31830.230164028482    1121.195902971208 
  580000   -5529.943218249358   -5529.943218249358   25151.268932354425  -31831.085128024421    1149.872977420632 
  581000   -5569.782435997939   -5569.782435997939   25183.908170074563  -31834.128421424564    1080.437815352062 
  582000   -5504.364448820423   -5504.364448820423   25267.251389819226  -31826.555531565027    1054.939692925381 
  583000   -5476.248186136218   -5476.248186136218   25212.826963518855  -31830.462244242051    1141.387094586978 
  584000   -5516.868874395626   -5516.868874395626   25217.110267452608  -31829.441362370599    1095.462220522362 
  585000   -5523.426545411839   -5523.426545411839   25170.297258328621  -31831.340431527515    1137.616627787052 
  586000   -5463.943234746323   -5463.943234746323   25303.868746987064  -31827.542962299151    1059.730980565771 
  587000   -5492.661698776734   -5492.661698776734   25298.634942847071  -31829.017639637779    1037.720998013979 
  588000   -5484.308604818765   -5484.308604818765   25289.208963752899  -31827.732925588745    1054.215357017086 
  589000   -5527.080734877669   -5527.080734877669   25224.055182054777  -31831.376977092325    1080.241060159874 
  590000   -5491.562465539166   -5491.562465539166   25304.925984279675  -31827.842550594803    1031.354100775961 
  591000   -5530.867642033663   -5530.867642033663   25250.065839790281  -31827.228209329485    1046.294727505537 
  592000   -5528.051791693950   -5528.051791693950   25281.374508312154  -31828.200738674866    1018.774438668766 
  593000   -5574.435164246599   -5574.435164246599   25144.630480207299  -31832.048859557341    1112.983215103443 
  594000   -5527.730430052587   -5527.730430052587   25156.562061948098  -31833.658803990736    1149.366311990048 
  595000   -5537.207306122124   -5537.207306122124   25167.811789591644  -31826.951501956384    1121.932406242618 
  596000   -5554.452656725862   -5554.452656725862   25160.760961492902  -31829.911004436293    1114.697386217530 
  597000   -5477.331677181046   -5477.331677181046   25181.607544101662  -31830.783178588641    1171.843957305929 
  598000   -5480.197584414214   -5480.197584414214   25299.008087011425  -31828.205681898846    1049.000010473208 
  599000   -5449.208815018610   -5449.208815018610   25295.265320899256  -31825.702982860716    1081.228846942854 
  600000   -5495.019480532123   -5495.019480532123   25333.817112587836  -31832.130471472501    1003.293878352544 
  601000   -5491.114416099139   -5491.114416099139   25284.794182972706  -31830.086288107312    1054.177689035468 
  602000   -5504.485092296320   -5504.485092296320   25251.423507923511  -31830.725249844923    1074.816649625091 
  603000   -5571.019560520275   -5571.019560520275   25171.929754556768  -31833.103419649349    1090.154104572308 
  604000   -5574.833902044145   -5574.833902044145   25118.245264148412  -31833.905565130990    1140.826398938429 
  605000   -5517.187956028567   -5517.187956028567   25251.939208657721  -31834.221555326185    1065.094390639892 
  606000   -5530.104449148930   -5530.104449148930   25145.360384146683  -31832.130180538541    1156.665347242929 
  607000   -5539.458172431205   -5539.458172431205   25190.311989031561  -31831.375233533083    1101.605072070317 
  608000   -5554.385263490036   -5554.385263490036   25178.505509631010  -31830.363887263517    1097.473114142475 
  609000   -5495.129714444025   -5495.129714444025   25258.510904905306  -31829.160176509351    1075.519557160020 
  610000   -5549.057264394760   -5549.057264394760   25227.577646498597  -31833.390388022606    1056.755477129253 
  611000   -5610.051355775086   -5610.051355775086   25067.819303486995  -31830.901091299231    1153.030432037149 
  612000   -5513.420137863101   -5513.420137863101   25247.712205856704  -31828.813393786844    1067.681050067042 
  613000   -5491.880628596809   -5491.880628596809   25180.905483894876  -31830.231848106843    1157.445735615160 
  614000   -5493.133626286923   -5493.133626286923   25165.536649206024  -31827.144023858185    1168.473748365238 
  615000   -5435.137326023196   -5435.137326023196   25374.380849523972  -31831.725898848763    1022.207723301595 
  616000   -5526.826281326230   -5526.826281326230   25177.013491139267  -31824.725010967053    1120.885238501553 
  617000   -5466.919049470242   -5466.919049470242   25317.517379700610  -31827.330543320011    1042.894114149160 
  618000   -5590.064218278982   -5590.064218278982   25136.878882779656  -31832.488342690020    1105.545241631382 
  619000   -5520.624895933026   -5520.624895933026   25249.250159576874  -31827.682412192582    1057.807356682680 
  620000   -5482.006520485593   -5482.006520485593   25273.070005590922  -31826.722681833242    1071.646155756725 
  621000   -5569.434991445614   -5569.434991445614   25198.629210066883  -31832.350066609757    1064.285865097260 
  622000   -5555.342812928888   -5555.342812928888   25167.743975031699  -31826.515113881222    1103.428325920627 
  623000   -5538.901691787629   -5538.901691787629   25201.934940986204  -31830.570386324776    1089.733753550941 
  624000   -5505.037836775005   -5505.037836775005   25279.681722180998  -31828.494571140513    1043.775012184511 
  625000   -5477.475537096107   -5477.475537096107   25283.092991373742  -31832.137016806551    1071.568488336703 
  626000   -5504.632305494415   -5504.632305494415   25250.214439093765  -31828.939832505486    1074.093087917309 
  627000   -5559.445253049384   -5559.445253049384   25077.339338958300  -31830.909452122844    1194.124860115157 
  628000   -5513.931408785527   -5513.931408785527   25245.361087477926  -31829.812508739982    1070.520012476530 
  629000   -5524.570996113434   -5524.570996113434   25205.031148164526  -31830.168287029210    1100.566142751244 
  630000   -5433.361615492013   -5433.361615492013   25397.246046329386  -31823.899485131784     993.291823310386 
  631000   -5548.733041359756   -5548.733041359756   25129.344221984233  -31830.333053599836    1152.255790255842 
  632000   -5544.832532967877   -5544.832532967877   25160.510781954727  -31828.568936761185    1123.225621838582 
  633000   -5555.178779537793   -5555.178779537793   25178.456855493721  -31831.267044676813    1097.631409645297 
  634000   -5499.585663589638   -5499.585663589638   25271.231671315058  -31829.000939787486    1058.183604882788 
  635000   -5485.907345284748   -5485.907345284748   25222.741991776649  -31826.533222323964    1117.883885262567 
  636000   -5539.567812966019   -5539.567812966019   25208.215260793269  -31828.448959269845    1080.665885510556 
  637000   -5481.591488735394   -5481.591488735394   25275.569004382392  -31828.821581024637    1071.661087906851 
  638000   -5551.690761212540   -5551.690761212540   25146.762050679787  -31826.171109710176    1127.718297817847 
  639000   -5492.496979750784   -5492.496979750784   25213.919718418605  -31829.304826668911    1122.888128499521 
  640000   -5509.179211175146   -5509.179211175146   25244.198528159090  -31826.343223450687    1072.965484116455 
  641000   -5543.891677154606   -5543.891677154606   25127.127734215952  -31829.476757948061    1158.457346577505 
  642000   -5539.292560767015   -5539.292560767015   25237.744919657613  -31825.516351991781    1048.478871567159 
  643000   -5519.093017124353   -5519.093017124353   25272.783929876095  -31828.175550784923    1036.298603784476 
  644000   -5529.423326589087   -5529.423326589087   25137.028972198081  -31824.413885281188    1157.961586494019 
  645000   -5512.701638563063   -5512.701638563063   25170.323692194968  -31828.418571125971    1145.393240367932 
  646000   -5505.850555666602   -5505.850555666602   25256.427427167098  -31826.312585103329    1064.034602269624 
  647000   -5442.213850441814   -5442.213850441814   25325.686143146933  -31828.927164823475    1061.027171234728 
  648000   -5477.647380842918   -5477.647380842918   25298.411324891691  -31833.324589065556    1057.265883330942 
  649000   -5467.065173527746   -5467.065173527746   25287.492783482601  -31827.801390971224    1073.243433960877 
  650000   -5556.003587591258   -5556.003587591258   25139.045420432823  -31826.766994699025    1131.717986674939 
  651000   -5612.551317567537   -5612.551317567537   25112.012094958372  -31827.505612378656    1102.942199852745 
  652000   -5517.011690699663   -5517.011690699663   25277.151350379958  -31828.666379742062    1034.503338662445 
  653000   -5537.638362026639   -5537.638362026639   25162.534776712608  -31830.880237194619    1130.707098455372 
  654000   -5502.495460591730   -5502.495460591730   25243.917907931507  -31829.079590693778    1082.666222170540 
  655000   -5542.833294708387   -5542.833294708387   25268.604972548921  -31828.386290324695    1016.948023067386 
  656000   -5570.719979078145   -5570.719979078145   25165.352461688668  -31830.816020713959    1094.743579947142 
  657000   -5521.297389874035   -5521.297389874035   25240.634756199681  -31826.880890973509    1064.948744899797 
  658000   -5506.938588617671   -5506.938588617671   25195.402013527688  -31829.347781368386    1127.007179223026 
  659000   -5506.403806608447   -5506.403806608447   25257.350628705899  -31831.894008154752    1068.139572840404 
  660000   -5523.372852062319   -5523.372852062319   25189.660618947819  -31829.399070265710    1116.365599255575 
  661000   -5548.523544994983   -5548.523544994983   25187.742058851814  -31831.695799753019    1095.430195906220 
  662000   -5573.856481840568   -5573.856481840568   25130.930060416576  -31831.630179509088    1126.843637251944 
  663000   -5548.486639104485   -5548.486639104485   25186.108841152865  -31830.014238106509    1095.418757849158 
  664000   -5488.097304553507   -5488.097304553507   25240.830114315340  -31825.222457208780    1096.295038339932 
  665000   -5549.111147082200   -5549.111147082200   25162.646836857159  -31827.234713887043    1115.476729947685 
  666000   -5544.839196660105   -5544.839196660105   25235.904922195743  -31826.437050750956    1045.692931895107 
  667000   -5497.911218655561   -5497.911218655561   25298.763144058103  -31827.455205163234    1030.780842449571 
  668000   -5509.261664015368   -5509.261664015368   25209.183798820563  -31825.737471745782    1107.292008909852 
  669000   -5486.905375125076   -5486.905375125076   25233.771077722820  -31827.239806575100    1106.563353727205 
  670000   -5567.484040097745   -5567.484040097745   25159.332862941752  -31830.649800990643    1103.832897951143 
  671000   -5556.693651545185   -5556.693651545185   25170.334280244213  -31829.548204461036    1102.520272671639 
  672000   -5535.508238070299   -5535.508238070299   25160.382286434655  -31829.977642379188    1134.087117874237 
  673000   -5461.730095280323   -5461.730095280323   25314.926221914218  -31827.249532430480    1050.593215235937 
  674000   -5496.429915110948   -5496.429915110948   25234.574073870404  -31829.077941117604    1098.073952136258 
  675000   -5560.523376685745   -5560.523376685745   25178.058078232752  -31828.061161464528    1089.479706546033 
[...]
 4838000   -5518.949855169059   -5518.949855169059   24974.444607633202  -31625.919259828985    1132.524797026725 
 4839000   -5502.665233544965   -5502.665233544965   25026.274851945996  -31627.676283297231    1098.736197806265 
 4840000   -5500.196830242367   -5500.196830242367   25063.055483567245  -31627.871872609940    1064.619558800324 
 4841000   -5473.000991343128   -5473.000991343128   25040.283597357884  -31622.761210379373    1109.476621678360 
 4842000   -5526.169105171215   -5526.169105171215   24989.447805822787  -31624.273052156739    1108.656141162738 
 4843000   -5546.315926886462   -5546.315926886462   24993.338483940228  -31627.132901227415    1087.478490400725 
 4844000   -5561.358318093222   -5561.358318093222   24989.335744712342  -31626.762228094583    1076.068165289016 
 4845000   -5555.333231987832   -5555.333231987832   25012.443865688732  -31628.952913575376    1061.175815898811 
 4846000   -5535.589667298493   -5535.589667298493   24993.960334300325  -31630.199506293182    1100.649504694368 
 4847000   -5483.484498683836   -5483.484498683836   25046.052944131981  -31625.505437999433    1095.967995183616 
 4848000   -5517.239020947869   -5517.239020947869   25052.521154158967  -31626.617018655648    1056.856843548818 
 4849000   -5566.413651321873   -5566.413651321873   24956.544268992544  -31625.007983406966    1102.050063092546 
 4850000   -5493.150962010102   -5493.150962010102   25101.396008229753  -31625.935352421755    1031.388382181900 
 4851000   -5519.737598222524   -5519.737598222524   25005.188353926376  -31625.615992029205    1100.690039880307 
 4852000   -5566.348857273599   -5566.348857273599   25007.588738721977  -31627.693975027170    1053.756379031596 
 4853000   -5494.968018123091   -5494.968018123091   24933.893877729377  -31627.798676387811    1198.936780535342 
 4854000   -5504.248478236423   -5504.248478236423   24924.906536892093  -31622.902564024502    1193.747548895989 
 4855000   -5528.562503831472   -5528.562503831472   25019.059245823169  -31625.490298528835    1077.868548874198 
 4856000   -5486.493997116955   -5486.493997116955   25007.775365170390  -31629.416554081879    1135.147191794533 
 4857000   -5559.658407714182   -5559.658407714182   24915.908712968907  -31621.218722181962    1145.651601498873 
 4858000   -5530.674080275687   -5530.674080275687   24986.145661339968  -31625.571481556963    1108.751739941308 
 4859000   -5533.840782154664   -5533.840782154664   25023.643546408319  -31628.573501241302    1071.089172678323 
 4860000   -5510.409596785688   -5510.409596785688   25093.349944074209  -31627.813198262033    1024.053657402132 
 4861000   -5576.601758411394   -5576.601758411394   24967.830270062492  -31632.428050010854    1087.996021536969 
 4862000   -5550.728808009651   -5550.728808009651   24965.059620203112  -31628.830678127379    1113.042249914614 
 4863000   -5624.530437803784   -5624.530437803784   24896.630320800388  -31625.983083809300    1104.822325205130 
 4864000   -5583.596637814713   -5583.596637814713   24887.986935724104  -31625.077667196500    1153.494093657683 
 4865000   -5592.828437851651   -5592.828437851651   24934.991963346431  -31625.664501344323    1097.844100146242 
 4866000   -5555.666558921999   -5555.666558921999   24960.912089876671  -31625.450934471708    1108.872285673041 
 4867000   -5495.794970068895   -5495.794970068895   25063.650969581577  -31627.259627131003    1067.813687480532 
 4868000   -5583.524067611896   -5583.524067611896   24932.011242567649  -31627.474765094943    1111.939454915401 
 4869000   -5496.576412475140   -5496.576412475140   24989.777885978972  -31624.567176308021    1138.212877853908 
 4870000   -5459.100815499169   -5459.100815499169   25145.810855351592  -31625.042711499798    1020.131040649034 
 4871000   -5522.674052781633   -5522.674052781633   25016.274669583927  -31629.622902266707    1090.674179901148 
 4872000   -5508.957580910494   -5508.957580910494   25017.484809441739  -31626.045233581241    1099.602843229005 
 4873000   -5477.170442269886   -5477.170442269886   25118.754612403165  -31623.846170836583    1027.921116163534 
 4874000   -5517.010976866884   -5517.010976866884   25025.511048767963  -31627.772303501300    1085.250277866453 
 4875000   -5459.788543401261   -5459.788543401261   25044.611001103574  -31618.082321963044    1113.682777458213 
 4876000   -5463.497473568401   -5463.497473568401   25119.284214530631  -31626.953053684374    1044.171365585344 
 4877000   -5522.215730457297   -5522.215730457297   24995.585571072581  -31627.886349308465    1110.085047778583 
 4878000   -5593.881284629028   -5593.881284629028   24926.442894441556  -31630.090474473403    1109.766295402817 
 4879000   -5557.567602135186   -5557.567602135186   24907.135375908234  -31621.859107201457    1157.156129158035 
 4880000   -5511.546051190526   -5511.546051190526   25064.049960484372  -31628.681689578574    1053.085677903677 
 4881000   -5535.185517634691   -5535.185517634691   24979.681945986082  -31626.917203643567    1112.049740022791 
 4882000   -5532.115793501362   -5532.115793501362   24984.230622219253  -31623.542254539927    1107.195838819311 
 4883000   -5526.354902267140   -5526.354902267140   25003.615169406799  -31624.611042611428    1094.640970937488 
 4884000   -5538.874627766752   -5538.874627766752   24969.832908921599  -31625.452154372397    1116.744617684048 
 4885000   -5578.792650025247   -5578.792650025247   24901.954905779443  -31624.920789083171    1144.173233278480 
 4886000   -5546.911457510745   -5546.911457510745   24947.376907485545  -31622.163072000149    1127.874707003857 
 4887000   -5577.196180007264   -5577.196180007264   24952.848839124039  -31626.402865906883    1096.357846775578 
 4888000   -5556.971674205561   -5556.971674205561   25007.065991762025  -31627.944884605131    1063.907218637541 
 4889000   -5522.425482671151   -5522.425482671151   25045.032639835692  -31628.324290458386    1060.866167951546 
 4890000   -5514.621694843805   -5514.621694843805   24985.361914253823  -31627.740229407103    1127.756620309478 
 4891000   -5555.320018953211   -5555.320018953211   25024.960340539925  -31629.910921428065    1049.630561934930 
 4892000   -5494.483647924833   -5494.483647924833   25088.307150097837  -31624.482194472366    1041.691396449691 
 4893000   -5473.249013984096   -5473.249013984096   25089.070187253510  -31624.520575095987    1062.201373858383 
 4894000   -5580.623667133917   -5580.623667133917   24966.136693320517  -31625.418929896106    1078.658569441672 
 4895000   -5500.066420928826   -5500.066420928826   25114.337205148702  -31624.440039168170    1010.036413090643 
 4896000   -5542.611874265102   -5542.611874265102   24982.242866151711  -31624.144624311884    1099.289883895069 
 4897000   -5525.902664408324   -5525.902664408324   25012.112745177583  -31629.298402957185    1091.282993371275 
 4898000   -5522.854781385060   -5522.854781385060   25018.015669490727  -31624.098626355088    1083.228175479301 
 4899000   -5504.158129809479   -5504.158129809479   24991.372902147501  -31623.131166247316    1127.600134290336 
 4900000   -5525.296422163421   -5525.296422163421   25103.575436582170  -31625.153398584651     996.281539839065 
 4901000   -5565.226103305817   -5565.226103305817   24995.848251781863  -31627.446670392164    1066.372315304478 
 4902000   -5491.561848959649   -5491.561848959649   25064.407976964700  -31627.231571574073    1071.261745649728 
 4903000   -5509.054347631158   -5509.054347631158   24979.479786835152  -31625.812340305449    1137.278205839137 
 4904000   -5489.634614911083   -5489.634614911083   25042.705284389885  -31623.942256349321    1091.602357048350 
 4905000   -5482.573535167456   -5482.573535167456   25036.160702408197  -31623.413214437249    1104.678976861593 
 4906000   -5519.732633745854   -5519.732633745854   25029.437932481465  -31625.231083797869    1076.060517570553 
 4907000   -5508.115575300741   -5508.115575300741   25064.115942681445  -31629.423472492093    1057.191954509908 
 4908000   -5474.757869866095   -5474.757869866095   25019.455606871943  -31624.072352842319    1129.858876104278 
 4909000   -5557.400093930602   -5557.400093930602   24902.783391824523  -31628.160271392859    1167.976785637736 
 4910000   -5570.308140960005   -5570.308140960005   24955.897434566556  -31622.617517179162    1096.411941652607 
 4911000   -5538.645532216189   -5538.645532216189   24986.015161558462  -31623.147070419142    1098.486376644487 
 4912000   -5545.248776316690   -5545.248776316690   24984.650149233377  -31624.883416713608    1094.984491163537 
 4913000   -5470.159945479598   -5470.159945479598   25111.817836229940  -31622.089284796606    1040.111503087069 
 4914000   -5513.824389414487   -5513.824389414487   25042.623221119316  -31627.628966089698    1071.181355555898 
 4915000   -5602.177039573788   -5602.177039573788   24934.381266167846  -31626.967366054592    1090.409060312954 
 4916000   -5617.864141268608   -5617.864141268608   24808.777789143169  -31627.211155957146    1200.569225545360 
 4917000   -5574.654849042174   -5574.654849042174   24889.961835235488  -31630.000836554103    1165.384152276441 
 4918000   -5537.655333892762   -5537.655333892762   25022.071075240467  -31627.702614103633    1067.976204970406 
 4919000   -5508.135855336408   -5508.135855336408   25051.404296458662  -31623.200335430865    1063.660183635799 
 4920000   -5505.142774301647   -5505.142774301647   25037.237783286630  -31625.866154072359    1083.485596484081 
 4921000   -5521.997048487654   -5521.997048487654   25055.936547241457  -31629.081440745325    1051.147845016219 
 4922000   -5477.332241284228   -5477.332241284228   25144.997102243840  -31630.206882881965    1007.877539353898 
 4923000   -5487.486226936995   -5487.486226936995   25015.389637375356  -31620.697669506924    1117.821805194576 
 4924000   -5561.355479469858   -5561.355479469858   24895.354439549141  -31630.252497976518    1173.542578957525 
 4925000   -5491.882150798316   -5491.882150798316   25069.804554607192  -31623.642859013227    1061.956153607716 
 4926000   -5528.649637884188   -5528.649637884188   24992.415851296464  -31623.986354860976    1102.920865680323 
 4927000   -5557.761932545647   -5557.761932545647   24987.307709021934  -31626.783939095734    1081.714297528153 
 4928000   -5502.443728627142   -5502.443728627142   25022.945234445142  -31628.539826238262    1103.150863165980 
 4929000   -5554.655466133441   -5554.655466133441   24998.293979379570  -31624.394710650551    1071.445265137540 
 4930000   -5478.372923166706   -5478.372923166706   25141.487956547629  -31626.544813182329    1006.683933467991 
 4931000   -5494.570307743164   -5494.570307743164   24992.285048227750  -31626.861763189252    1140.006407218333 
 4932000   -5508.990193185960   -5508.990193185960   25018.834268567422  -31624.043893622958    1096.219431869580 
 4933000   -5598.292264373838   -5598.292264373838   24919.013264042063  -31627.059886199324    1109.754357783420 
 4934000   -5545.657990630698   -5545.657990630698   25053.941297063298  -31625.388871299514    1025.789583605518 
 4935000   -5524.192790486533   -5524.192790486533   25025.013488243720  -31627.629400783513    1078.423122053260 
 4936000   -5509.177003739151   -5509.177003739151   25041.266384767896  -31626.795156715936    1076.351768208886 
 4937000   -5460.244751667185   -5460.244751667185   25148.729512646580  -31626.829170039040    1017.854905725281 
 4938000   -5472.990349004383   -5472.990349004383   25062.577895856753  -31624.622096704981    1089.053851843839 
 4939000   -5532.055359590919   -5532.055359590919   25045.408118970448  -31630.533833761132    1053.070355199765 
 4940000   -5479.779668109069   -5479.779668109069   25049.349907509732  -31622.710372825513    1093.580797206712 
 4941000   -5526.556933776945   -5526.556933776945   25003.668177597428  -31627.316231639961    1097.091120265594 
 4942000   -5557.218541067912   -5557.218541067912   24970.501592973746  -31626.879207499824    1099.159073458163 
 4943000   -5558.861348188806   -5558.861348188806   24946.771028002149  -31624.960547943931    1119.328171752974 
 4944000   -5524.065734320418   -5524.065734320418   25045.802285242913  -31625.842233898835    1055.974214335501 
 4945000   -5542.758504184363   -5542.758504184363   24891.601322419679  -31624.382284448733    1190.022457844693 
 4946000   -5522.733439427338   -5522.733439427338   25113.515988227256  -31629.835204474311     993.585776819712 
 4947000   -5474.181353402517   -5474.181353402517   25054.017198203757  -31622.147749158979    1093.949197552699 
 4948000   -5510.508642328663   -5510.508642328663   25020.099096420210  -31626.586197151853    1095.978458402982 
 4949000   -5477.641770265225   -5477.641770265225   25063.901189087243  -31625.144521164104    1083.601561811636 
 4950000   -5511.992120725085   -5511.992120725085   25084.475548421102  -31619.934564872619    1023.466895726435 
 4951000   -5521.928698579864   -5521.928698579864   24901.388646319851  -31624.621859097930    1201.304514198212 
 4952000   -5538.291230527910   -5538.291230527910   24943.757999157937  -31623.770724218419    1141.721494532571 
 4953000   -5525.565293619638   -5525.565293619638   25053.845351443808  -31626.201161469300    1046.790516405851 
 4954000   -5421.006676777120   -5421.006676777120   25169.225476608775  -31622.595416466305    1032.363263080406 
 4955000   -5521.334192161077   -5521.334192161077   25022.896217768895  -31624.925531844525    1080.695121914556 
 4956000   -5556.210821758559   -5556.210821758559   24957.895452948731  -31627.852216740321    1113.745942033031 
 4957000   -5545.540283936651   -5545.540283936651   25035.710177497713  -31628.328556943361    1047.078095508998 
 4958000   -5537.667623839472   -5537.667623839472   24953.287115651809  -31629.498961411373    1138.544221920092 
 4959000   -5566.158088282722   -5566.158088282722   24982.966282347035  -31629.321159336549    1080.196788706790 
 4960000   -5479.587999096017   -5479.587999096017   25072.294790806525  -31623.936864984451    1072.054075081907 
 4961000   -5526.253598526964   -5526.253598526964   25087.952368583639  -31625.315112493252    1011.109145382649 
 4962000   -5495.559357832368   -5495.559357832368   25127.281546230501  -31624.084093400204    1001.243189337338 
 4963000   -5510.561280568018   -5510.561280568018   24996.124895668858  -31621.387778961049    1114.701602724173 
 4964000   -5570.679693533886   -5570.679693533886   24942.326933039789  -31627.490045436709    1114.483418863037 
 4965000   -5489.535694585709   -5489.535694585709   25037.090566530773  -31623.419743433817    1096.793482317335 
 4966000   -5533.191252313070   -5533.191252313070   24983.191364024358  -31628.157435359422    1111.774819021991 
 4967000   -5478.796379934702   -5478.796379934702   25019.164991886457  -31619.638261207543    1121.676889386383 
 4968000   -5490.500847884574   -5490.500847884574   25042.951140985591  -31630.076646549573    1096.624657679405 
 4969000   -5501.746466651821   -5501.746466651821   25072.361206145208  -31624.960092219619    1050.852419422589 
 4970000   -5535.765791473052   -5535.765791473052   25003.341709462758  -31629.473533683944    1090.366032748137 
 4971000   -5509.616034290888   -5509.616034290888   25004.567848952538  -31629.047831116663    1114.863947873234 
 4972000   -5490.528118881750   -5490.528118881750   25081.748030807496  -31629.109438675903    1056.833288986654 
 4973000   -5517.275819519800   -5517.275819519800   25031.212543040208  -31628.812624139093    1080.324261579082 
 4974000   -5495.751061782765   -5495.751061782765   24961.633176801413  -31626.401779352116    1169.017540767935 
 4975000   -5504.539437443218   -5504.539437443218   25031.854361783531  -31625.885240644064    1089.491441417314 
 4976000   -5585.284492970022   -5585.284492970022   24948.913463549135  -31628.749309660503    1094.551353141341 
 4977000   -5530.702611556659   -5530.702611556659   24998.642944514984  -31629.195807659977    1099.850251588335 
 4978000   -5528.389848443207   -5528.389848443207   25001.587448562837  -31626.917228128445    1096.939931122403 
 4979000   -5496.654403588367   -5496.654403588367   25070.305098667697  -31626.871465520959    1059.911963264898 
 4980000   -5543.376365206492   -5543.376365206492   24966.870405928123  -31623.832796613951    1113.586025479336 
 4981000   -5518.429035664089   -5518.429035664089   25038.269310398824  -31621.929961937265    1065.231615874354 
 4982000   -5551.597130398248   -5551.597130398248   24956.381837925721  -31630.143229821027    1122.164261497056 
 4983000   -5528.911140204171   -5528.911140204171   25051.147211593001  -31629.196418118616    1049.138066321445 
 4984000   -5555.641510026911   -5555.641510026911   25000.750213906002  -31627.305890421256    1070.914166488343 
 4985000   -5534.993052062771   -5534.993052062771   25031.612045541176  -31628.850209871391    1062.245112267441 
 4986000   -5504.447288498108   -5504.447288498108   25036.091012649442  -31627.251712032317    1086.713410884764 
 4987000   -5564.986873398841   -5564.986873398841   24998.955360224514  -31630.504568101256    1066.562334477897 
 4988000   -5533.140177084100   -5533.140177084100   25056.170890484034  -31625.014202715531    1035.703135147397 
 4989000   -5498.442164345888   -5498.442164345888   25038.118387389964  -31627.699051308980    1091.138499573129 
 4990000   -5547.692659532273   -5547.692659532273   25015.468872758323  -31623.677599009698    1060.516066719105 
 4991000   -5524.807108000809   -5524.807108000809   25057.655975439066  -31625.351017116143    1042.887933676268 
 4992000   -5542.859901889395   -5542.859901889395   24946.138985666294  -31625.999007769904    1137.000120214210 
 4993000   -5476.368260251642   -5476.368260251642   25030.380812646843  -31626.950216578891    1120.201143680402 
 4994000   -5513.868895553613   -5513.868895553613   25000.769024348534  -31625.676554094360    1111.038634192215 
 4995000   -5495.619672641107   -5495.619672641107   25047.255660544899  -31626.298762851882    1083.423429665880 
 4996000   -5503.633167752909   -5503.633167752909   24997.371971581462  -31623.582786686871    1122.577647352500 
 4997000   -5576.176667462558   -5576.176667462558   24942.967694236107  -31626.829848734524    1107.685487035860 
 4998000   -5579.541026470604   -5579.541026470604   24907.944067764700  -31629.849787250267    1142.364693014963 
 4999000   -5542.166567572811   -5542.166567572811   24981.064475105850  -31625.477554285593    1102.246511606932 
 5000000   -5499.673376591400   -5499.673376591400   25096.078183022852  -31627.500931900755    1031.749372286497 
Loop time of 29.9168 on 8 procs for 5001 steps with 1503 atoms

Performance: 14.443 ns/day, 1.662 hours/ns, 167.163 timesteps/s
98.9% CPU use with 8 MPI tasks x 1 OpenMP threads

MPI task timing breakdown:
Section |  min time  |  avg time  |  max time  |%varavg| %total
---------------------------------------------------------------
Pair    | 0          | 0          | 0          |   0.0 |  0.00
Bond    | 0          | 0          | 0          |   0.0 |  0.00
Kspace  | 0          | 0          | 0          |   0.0 |  0.00
Neigh   | 0          | 0          | 0          |   0.0 |  0.00
Comm    | 0          | 0          | 0          |   0.0 |  0.00
Output  | 0          | 0          | 0          |   0.0 |  0.00
Modify  | 0          | 0          | 0          |   0.0 |  0.00
Other   |            | 29.92      |            |       |100.00

Nlocal:    187.875 ave 205 max 176 min
Histogram: 1 0 2 1 2 1 0 0 0 1
Nghost:    4594.88 ave 4669 max 4560 min
Histogram: 2 1 2 0 2 0 0 0 0 1
Neighs:    67534.5 ave 73938 max 63049 min
Histogram: 1 0 2 1 2 1 0 0 0 1

Total # of neighbors = 540276
Ave neighs/atom = 359.465
Ave special neighs/atom = 2
Neighbor list builds = 0
Dangerous builds = 0
Total wall time: 0:01:30
