LAMMPS (3 Mar 2020)
  using 1 OpenMP thread(s) per MPI task
Reading data file ...
  orthogonal box = (0 0 0) to (24 24 24)
  2 by 2 by 2 MPI processor grid
  reading atoms ...
  1503 atoms
  scanning bonds ...
  2 = max bonds/atom
  scanning angles ...
  1 = max angles/atom
  reading bonds ...
  1002 bonds
  reading angles ...
  501 angles
Finding 1-2 1-3 1-4 neighbors ...
  special bond factors lj:   0          0          0         
  special bond factors coul: 0          0          0         
  2 = max # of 1-2 neighbors
  1 = max # of 1-3 neighbors
  1 = max # of 1-4 neighbors
  2 = max # of special neighbors
  special bonds CPU = 0.0114144 secs
  read_data CPU = 0.0192015 secs
Setting atom values ...
  1 settings made for charge
Setting atom values ...
  2 settings made for charge
WARNING: Using 'neigh_modify every 1 delay 0 check yes' setting during minimization (src/min.cpp:190)
PPPM initialization ...
  using 12-bit tables for long-range coulomb (src/kspace.cpp:332)
  G vector (1/distance) = 0.315108
  grid = 24 24 24
  stencil order = 5
  estimated absolute RMS force accuracy = 0.0017131
  estimated relative force accuracy = 5.15894e-06
  using double precision MKL FFT
  3d grid and FFT values/proc = 6859 1728
Neighbor list info ...
  update every 1 steps, delay 0 steps, check yes
  max neighbors/atom: 2000, page size: 100000
  master list distance cutoff = 12
  ghost atom cutoff = 12
  binsize = 6, bins = 4 4 4
  3 neighbor lists, perpetual/occasional/extra = 3 0 0
  (1) pair lj/cut/coul/long, perpetual, skip from (3)
      attributes: half, newton on
      pair build: skip
      stencil: none
      bin: none
  (2) pair lj/cut/coul/long/soft, perpetual, skip from (3)
      attributes: half, newton on
      pair build: skip
      stencil: none
      bin: none
  (3) neighbor class addition, perpetual
      attributes: half, newton on
      pair build: half/bin/newton
      stencil: half/bin/3d/newton
      bin: standard
Setting up cg style minimization ...
  Unit style    : real
  Current step  : 0
Per MPI rank memory allocation (min/avg/max) = 10.15 | 10.15 | 10.16 Mbytes
Step Temp E_pair E_mol TotEng Press 
       0            0    -243.8969   0.56510211   -243.33179    17985.674 
      58            0   -6661.2372    348.01824    -6313.219   -4146.0349 
Loop time of 0.220201 on 8 procs for 58 steps with 1503 atoms

98.1% CPU use with 8 MPI tasks x 1 OpenMP threads

Minimization stats:
  Stopping criterion = energy tolerance
  Energy initial, next-to-last, final = 
        -243.331794236     -6307.35052484     -6313.21896064
  Force two-norm initial, final = 681.707 119.557
  Force max component initial, final = 40.0351 13.1231
  Final line search alpha, max atom move = 0.00471433 0.0618668
  Iterations, force evaluations = 58 101

MPI task timing breakdown:
Section |  min time  |  avg time  |  max time  |%varavg| %total
---------------------------------------------------------------
Pair    | 0.14959    | 0.15155    | 0.15527    |   0.4 | 68.83
Bond    | 0.00052438 | 0.00054971 | 0.00057372 |   0.0 |  0.25
Kspace  | 0.047616   | 0.051334   | 0.053509   |   0.8 | 23.31
Neigh   | 0.0043493  | 0.0043763  | 0.0044099  |   0.0 |  1.99
Comm    | 0.0098228  | 0.01014    | 0.010409   |   0.2 |  4.61
Output  | 0          | 0          | 0          |   0.0 |  0.00
Modify  | 0          | 0          | 0          |   0.0 |  0.00
Other   |            | 0.002246   |            |       |  1.02

Nlocal:    187.875 ave 192 max 186 min
Histogram: 2 2 0 2 0 1 0 0 0 1
Nghost:    4884.75 ave 4904 max 4876 min
Histogram: 3 1 1 0 0 2 0 0 0 1
Neighs:    72770.1 ave 75574 max 70876 min
Histogram: 1 0 1 3 1 1 0 0 0 1

Total # of neighbors = 582161
Ave neighs/atom = 387.333
Ave special neighs/atom = 2
Neighbor list builds = 3
Dangerous builds = 0
Finding SHAKE clusters ...
  0 = # of size 2 clusters
  0 = # of size 3 clusters
  0 = # of size 4 clusters
  501 = # of frozen angles
  find clusters CPU = 0.000302024 secs
PPPM initialization ...
  using 12-bit tables for long-range coulomb (src/kspace.cpp:332)
  G vector (1/distance) = 0.315108
  grid = 24 24 24
  stencil order = 5
  estimated absolute RMS force accuracy = 0.0017131
  estimated relative force accuracy = 5.15894e-06
  using double precision MKL FFT
  3d grid and FFT values/proc = 6859 1728
Neighbor list info ...
  update every 1 steps, delay 10 steps, check yes
  max neighbors/atom: 2000, page size: 100000
  master list distance cutoff = 12
  ghost atom cutoff = 12
  binsize = 6, bins = 4 4 4
  3 neighbor lists, perpetual/occasional/extra = 3 0 0
  (1) pair lj/cut/coul/long, perpetual, skip from (3)
      attributes: half, newton on
      pair build: skip
      stencil: none
      bin: none
  (2) pair lj/cut/coul/long/soft, perpetual, skip from (3)
      attributes: half, newton on
      pair build: skip
      stencil: none
      bin: none
  (3) neighbor class addition, perpetual
      attributes: half, newton on
      pair build: half/bin/newton
      stencil: half/bin/3d/newton
      bin: standard
Setting up Verlet run ...
  Unit style    : real
  Current step  : 58
  Time step     : 1
Per MPI rank memory allocation (min/avg/max) = 9.904 | 9.905 | 9.906 Mbytes
Step Temp TotEng PotEng E_bond E_angle E_dihed E_coul E_long E_vdwl 
      58     300.000000   -5766.099945   -6661.237203       0.000000       0.000000       0.000000   23913.985009  -31838.311655    1263.089444 
   10000     300.702049   -4612.099556   -5509.331581       0.000000       0.000000       0.000000   25173.894623  -31829.095746    1145.869542 
   20000     298.195520   -4711.984282   -5601.737350       0.000000       0.000000       0.000000   25123.805083  -31833.573934    1108.031502 
   30000     298.724782   -4642.904929   -5534.237204       0.000000       0.000000       0.000000   25136.709204  -31822.311810    1151.365402 
   40000     301.489506   -4615.753664   -5515.335298       0.000000       0.000000       0.000000   25191.436135  -31830.302332    1123.530900 
   50000     300.594787   -4606.109876   -5503.021853       0.000000       0.000000       0.000000   25275.448838  -31827.507487    1049.036797 
   60000     299.802453   -4581.492169   -5476.039988       0.000000       0.000000       0.000000   25260.922999  -31828.244371    1091.281384 
   70000     301.360608   -4631.647793   -5530.844820       0.000000       0.000000       0.000000   25197.986919  -31824.724430    1095.892691 
   80000     297.906239   -4640.909403   -5529.799315       0.000000       0.000000       0.000000   25205.602108  -31828.337090    1092.935666 
   90000     296.920503   -4678.863207   -5564.811892       0.000000       0.000000       0.000000   25164.338689  -31826.840030    1097.689449 
  100000     306.422906   -4603.704528   -5518.006395       0.000000       0.000000       0.000000   25223.333280  -31829.443572    1088.103896 
  110000     293.855528   -4611.382272   -5488.185709       0.000000       0.000000       0.000000   25265.797256  -31826.883497    1072.900531 
  120000     295.730333   -4638.717622   -5521.115085       0.000000       0.000000       0.000000   25237.247943  -31830.543538    1072.180510 
  130000     299.411127   -4605.778185   -5499.158370       0.000000       0.000000       0.000000   25317.592753  -31827.983627    1011.232504 
  140000     301.975965   -4633.736855   -5534.769978       0.000000       0.000000       0.000000   25256.191587  -31828.983871    1038.022307 
  150000     296.737276   -4676.320256   -5561.722227       0.000000       0.000000       0.000000   25225.893395  -31829.179665    1041.564044 
  160000     303.091639   -4625.895893   -5530.257955       0.000000       0.000000       0.000000   25138.608053  -31830.200046    1161.334037 
  170000     297.591164   -4643.745702   -5531.695498       0.000000       0.000000       0.000000   25147.699122  -31827.659276    1148.264655 
  180000     301.350048   -4632.358595   -5531.524114       0.000000       0.000000       0.000000   25247.265217  -31831.260477    1052.471145 
  190000     294.062516   -4631.939968   -5509.361017       0.000000       0.000000       0.000000   25220.505061  -31828.616156    1098.750077 
  200000     307.917356   -4626.669653   -5545.430645       0.000000       0.000000       0.000000   25162.783690  -31823.550303    1115.335968 
  210000     307.732995   -4637.274641   -5555.485539       0.000000       0.000000       0.000000   25144.495728  -31832.238216    1132.256948 
  220000     288.056237   -4653.647858   -5513.147425       0.000000       0.000000       0.000000   25246.045308  -31830.276873    1071.084139 
  230000     293.474622   -4649.296319   -5524.963213       0.000000       0.000000       0.000000   25179.922254  -31824.541890    1119.656423 
  240000     298.953836   -4598.960211   -5490.975933       0.000000       0.000000       0.000000   25262.505856  -31830.960685    1077.478895 
  250000     295.562080   -4625.021263   -5506.916695       0.000000       0.000000       0.000000   25187.688665  -31829.239330    1134.633971 
  260000     308.807524   -4627.161753   -5548.578822       0.000000       0.000000       0.000000   25187.466491  -31828.186999    1092.141686 
  270000     304.643134   -4651.765964   -5560.757363       0.000000       0.000000       0.000000   25200.973012  -31832.256438    1070.526062 
  280000     302.263772   -4678.184481   -5580.076362       0.000000       0.000000       0.000000   25067.467408  -31829.217999    1181.674229 
  290000     311.055586   -4584.784262   -5512.909075       0.000000       0.000000       0.000000   25254.083195  -31825.999921    1059.007652 
  300000     288.930983   -4694.585289   -5556.694915       0.000000       0.000000       0.000000   25221.325438  -31828.714606    1050.694252 
  310000     302.007749   -4632.722773   -5533.850734       0.000000       0.000000       0.000000   25270.450447  -31825.831729    1021.530547 
  320000     292.839405   -4656.629099   -5530.400639       0.000000       0.000000       0.000000   25165.770584  -31832.939067    1136.767843 
  330000     305.239621   -4612.715009   -5523.486201       0.000000       0.000000       0.000000   25186.565524  -31824.809197    1114.757472 
  340000     300.571472   -4650.646302   -5547.488714       0.000000       0.000000       0.000000   25234.914343  -31833.402198    1050.999141 
  350000     291.314447   -4698.941674   -5568.163059       0.000000       0.000000       0.000000   25086.928409  -31835.423188    1180.331720 
  360000     309.511266   -4561.731420   -5485.248306       0.000000       0.000000       0.000000   25285.548813  -31826.703612    1055.906493 
  370000     298.212710   -4648.303074   -5538.107432       0.000000       0.000000       0.000000   25231.056737  -31828.814427    1059.650257 
  380000     293.140352   -4640.476921   -5515.146425       0.000000       0.000000       0.000000   25264.070201  -31826.066072    1046.849446 
  390000     304.387685   -4577.425660   -5485.654853       0.000000       0.000000       0.000000   25296.489680  -31829.082933    1046.938399 
  400000     297.252009   -4665.552009   -5552.489837       0.000000       0.000000       0.000000   25133.251513  -31829.138716    1143.397366 
  410000     296.487096   -4669.699674   -5554.355161       0.000000       0.000000       0.000000   25211.858438  -31828.966954    1062.753354 
  420000     291.630655   -4719.676097   -5589.840981       0.000000       0.000000       0.000000   25118.970185  -31832.539321    1123.728156 
  430000     297.249767   -4626.383352   -5513.314491       0.000000       0.000000       0.000000   25236.315965  -31828.760335    1079.129880 
  440000     315.211622   -4587.773550   -5528.299108       0.000000       0.000000       0.000000   25235.152691  -31827.172812    1063.721014 
  450000     304.989148   -4642.591064   -5552.614896       0.000000       0.000000       0.000000   25205.385161  -31830.124051    1072.123993 
  460000     300.998287   -4629.115331   -5527.231268       0.000000       0.000000       0.000000   25256.599337  -31830.043577    1046.212971 
  470000     311.522597   -4547.684050   -5477.202329       0.000000       0.000000       0.000000   25241.490773  -31829.788385    1111.095283 
  480000     302.764940   -4622.054257   -5525.441519       0.000000       0.000000       0.000000   25174.837879  -31826.730500    1126.451103 
  490000     297.178331   -4687.457823   -5574.175812       0.000000       0.000000       0.000000   25132.682806  -31824.924756    1118.066139 
  500000     293.443092   -4690.034774   -5565.607590       0.000000       0.000000       0.000000   25154.466786  -31828.667603    1108.593227 
  510000     288.004540   -4756.975574   -5616.320888       0.000000       0.000000       0.000000   25077.797999  -31826.035362    1131.916475 
  520000     294.193633   -4616.992692   -5494.804965       0.000000       0.000000       0.000000   25232.194933  -31827.588558    1100.588661 
  530000     303.614852   -4608.159878   -5514.083097       0.000000       0.000000       0.000000   25184.934712  -31831.711442    1132.693633 
  540000     294.973429   -4646.005641   -5526.144662       0.000000       0.000000       0.000000   25236.381521  -31828.508457    1065.982274 
  550000     301.639308   -4614.271922   -5514.300532       0.000000       0.000000       0.000000   25224.558915  -31832.884083    1094.024635 
  560000     298.010366   -4627.388642   -5516.589249       0.000000       0.000000       0.000000   25291.909997  -31826.698119    1018.198873 
  570000     305.464725   -4623.563839   -5535.006693       0.000000       0.000000       0.000000   25228.412560  -31826.549164    1063.129912 
  580000     293.260981   -4615.635779   -5490.665213       0.000000       0.000000       0.000000   25256.313487  -31827.545173    1080.566474 
  590000     297.291708   -4614.470572   -5501.526853       0.000000       0.000000       0.000000   25261.267893  -31828.476421    1065.681675 
  600000     290.047395   -4637.296488   -5502.737256       0.000000       0.000000       0.000000   25223.489746  -31827.646292    1101.419290 
  610000     292.481010   -4686.769469   -5559.471633       0.000000       0.000000       0.000000   25118.534167  -31831.334747    1153.328948 
  620000     309.358716   -4560.448452   -5483.510160       0.000000       0.000000       0.000000   25218.070433  -31825.640751    1124.060158 
  630000     315.922689   -4675.025057   -5617.672289       0.000000       0.000000       0.000000   25089.331502  -31829.762268    1122.758476 
  640000     301.568129   -4625.298915   -5525.115143       0.000000       0.000000       0.000000   25230.401253  -31825.161434    1069.645037 
  650000     305.046003   -4559.234623   -5469.428099       0.000000       0.000000       0.000000   25251.472383  -31827.470898    1106.570416 
  660000     306.242720   -4636.352604   -5550.116832       0.000000       0.000000       0.000000   25198.740922  -31830.322888    1081.465134 
  670000     306.657908   -4663.800742   -5578.803804       0.000000       0.000000       0.000000   25165.362490  -31830.142659    1085.976365 
  680000     312.991089   -4600.778941   -5534.678892       0.000000       0.000000       0.000000   25259.029325  -31832.367951    1038.659735 
  690000     307.444844   -4605.137073   -5522.488187       0.000000       0.000000       0.000000   25191.606450  -31831.966381    1117.871744 
  700000     299.103799   -4626.192161   -5518.655342       0.000000       0.000000       0.000000   25170.128204  -31827.533564    1138.750018 
  710000     300.847602   -4584.497709   -5482.164035       0.000000       0.000000       0.000000   25326.509053  -31831.876253    1023.203164 
  720000     306.966721   -4576.223610   -5492.148106       0.000000       0.000000       0.000000   25310.932533  -31827.726133    1024.645494 
  730000     294.282936   -4663.439594   -5541.518328       0.000000       0.000000       0.000000   25193.480537  -31827.720665    1092.721800 
  740000     310.996136   -4582.360434   -5510.307861       0.000000       0.000000       0.000000   25208.579651  -31832.345759    1113.458247 
  750000     313.222825   -4539.884234   -5474.475635       0.000000       0.000000       0.000000   25379.052361  -31828.465840     974.937844 
  760000     313.154747   -4545.814138   -5480.202408       0.000000       0.000000       0.000000   25282.305288  -31827.620557    1065.112860 
  770000     295.418860   -4678.134180   -5559.602276       0.000000       0.000000       0.000000   25135.778985  -31829.582714    1134.201454 
  780000     291.574357   -4695.798740   -5565.795641       0.000000       0.000000       0.000000   25127.404923  -31832.940953    1139.740390 
  790000     297.792468   -4755.600734   -5644.151179       0.000000       0.000000       0.000000   25052.053002  -31829.433446    1133.229265 
  800000     300.432776   -4614.091317   -5510.519888       0.000000       0.000000       0.000000   25222.926041  -31828.417715    1094.971785 
  810000     312.403090   -4596.490725   -5528.636209       0.000000       0.000000       0.000000   25229.974038  -31828.878223    1070.267976 
  820000     301.506194   -4665.827004   -5565.458428       0.000000       0.000000       0.000000   25189.943105  -31831.035519    1075.633986 
  830000     306.759378   -4637.081046   -5552.386874       0.000000       0.000000       0.000000   25107.829667  -31826.998713    1166.782172 
  840000     303.386076   -4612.187350   -5517.427952       0.000000       0.000000       0.000000   25230.983868  -31831.948267    1083.536447 
  850000     293.729273   -4704.211555   -5580.638274       0.000000       0.000000       0.000000   25083.433076  -31830.208599    1166.137249 
  860000     306.790308   -4712.956261   -5628.354377       0.000000       0.000000       0.000000   25005.515013  -31831.513522    1197.644133 
  870000     307.285401   -4692.484111   -5609.359482       0.000000       0.000000       0.000000   25102.714314  -31831.435180    1119.361384 
  880000     307.576396   -4586.288880   -5504.032518       0.000000       0.000000       0.000000   25244.254531  -31828.438223    1080.151174 
  890000     313.104807   -4563.702934   -5497.942193       0.000000       0.000000       0.000000   25286.574546  -31827.852756    1043.336016 
  900000     298.983723   -4648.665989   -5540.770888       0.000000       0.000000       0.000000   25169.931714  -31829.847914    1119.145313 
  910000     296.724761   -4628.131172   -5513.495802       0.000000       0.000000       0.000000   25214.905070  -31828.996633    1100.595760 
  920000     300.812468   -4637.290677   -5534.852169       0.000000       0.000000       0.000000   25201.766460  -31829.324830    1092.706201 
  930000     302.916323   -4636.779335   -5540.618289       0.000000       0.000000       0.000000   25256.792001  -31828.755141    1031.344850 
  940000     304.436700   -4620.926740   -5529.302183       0.000000       0.000000       0.000000   25173.702786  -31829.698889    1126.693920 
  950000     298.339822   -4637.466164   -5527.649797       0.000000       0.000000       0.000000   25220.697772  -31830.053383    1081.705814 
  960000     298.404184   -4639.568323   -5529.944000       0.000000       0.000000       0.000000   25220.037634  -31831.177380    1081.195747 
  970000     289.716224   -4711.754850   -5576.207470       0.000000       0.000000       0.000000   25161.118725  -31830.793871    1093.467676 
  980000     293.638815   -4633.760524   -5509.917336       0.000000       0.000000       0.000000   25216.886606  -31827.970807    1101.166865 
  990000     297.231257   -4634.658598   -5521.534505       0.000000       0.000000       0.000000   25277.197690  -31828.161355    1029.429160 
 1000000     285.151115   -4655.832451   -5506.663742       0.000000       0.000000       0.000000   25308.956874  -31830.761292    1015.140675 
 1000058     287.151174   -4651.060681   -5507.859731       0.000000       0.000000       0.000000   25299.483742  -31823.996328    1016.652855 
Loop time of 1964.9 on 8 procs for 1000000 steps with 1503 atoms

Performance: 43.972 ns/day, 0.546 hours/ns, 508.931 timesteps/s
99.2% CPU use with 8 MPI tasks x 1 OpenMP threads

MPI task timing breakdown:
Section |  min time  |  avg time  |  max time  |%varavg| %total
---------------------------------------------------------------
Pair    | 979.8      | 982.54     | 987.98     |   8.4 | 50.00
Bond    | 0.27732    | 0.31047    | 0.3595     |   5.7 |  0.02
Kspace  | 524.71     | 530.47     | 532.87     |  11.6 | 27.00
Neigh   | 70.282     | 70.329     | 70.389     |   0.5 |  3.58
Comm    | 89.953     | 93.56      | 97.397     |  19.6 |  4.76
Output  | 0.0041303  | 0.0077546  | 0.033012   |  10.8 |  0.00
Modify  | 267.32     | 278.17     | 285.8      |  29.3 | 14.16
Other   |            | 9.524      |            |       |  0.48

Nlocal:    187.875 ave 198 max 180 min
Histogram: 1 0 0 3 1 2 0 0 0 1
Nghost:    4530 ave 4554 max 4493 min
Histogram: 1 0 0 0 1 0 4 0 1 1
Neighs:    65832.8 ave 68895 max 63010 min
Histogram: 1 0 1 0 2 3 0 0 0 1

Total # of neighbors = 526662
Ave neighs/atom = 350.407
Ave special neighs/atom = 2
Neighbor list builds = 43371
Dangerous builds = 0
PPPM initialization ...
  using 12-bit tables for long-range coulomb (src/kspace.cpp:332)
  G vector (1/distance) = 0.312483
  grid = 24 24 24
  stencil order = 5
  estimated absolute RMS force accuracy = 0.00191144
  estimated relative force accuracy = 5.75624e-06
  using double precision MKL FFT
  3d grid and FFT values/proc = 6859 1728
Neighbor list info ...
  update every 1 steps, delay 10 steps, check yes
  max neighbors/atom: 2000, page size: 100000
  master list distance cutoff = 12
  ghost atom cutoff = 12
  binsize = 6, bins = 5 5 5
  3 neighbor lists, perpetual/occasional/extra = 3 0 0
  (1) pair lj/cut/coul/long, perpetual, skip from (3)
      attributes: half, newton on
      pair build: skip
      stencil: none
      bin: none
  (2) pair lj/cut/coul/long/soft, perpetual, skip from (3)
      attributes: half, newton on
      pair build: skip
      stencil: none
      bin: none
  (3) neighbor class addition, perpetual
      attributes: half, newton on
      pair build: half/bin/newton
      stencil: half/bin/3d/newton
      bin: standard
Setting up Verlet run ...
  Unit style    : real
  Current step  : 0
  Time step     : 1
Per MPI rank memory allocation (min/avg/max) = 10.91 | 10.91 | 10.91 Mbytes
Step Temp TotEng PotEng E_bond E_angle E_dihed E_coul E_long E_vdwl 
       0     287.151174   -4651.057109   -5507.856159       0.000000       0.000000       0.000000   25035.085901  -31559.594914    1016.652855 
   10000     300.941371   -4639.203672   -5537.149784       0.000000       0.000000       0.000000   24928.109642  -31560.782872    1095.523447 
   20000     308.599649   -4660.925431   -5581.722243       0.000000       0.000000       0.000000   24903.646792  -31566.540977    1081.171943 
   30000     309.543054   -4618.014577   -5541.626312       0.000000       0.000000       0.000000   25002.257481  -31565.712224    1021.828430 
   40000     307.345472   -4613.165541   -5530.220152       0.000000       0.000000       0.000000   24906.878513  -31560.975487    1123.876822 
   50000     303.100902   -4546.880731   -5451.270431       0.000000       0.000000       0.000000   25068.777722  -31561.190187    1041.142034 
   60000     303.735216   -4681.516328   -5587.798690       0.000000       0.000000       0.000000   24876.735645  -31564.205171    1099.670836 
   70000     305.325236   -4642.130915   -5553.157564       0.000000       0.000000       0.000000   24889.773417  -31570.186495    1127.255515 
   80000     298.924539   -4626.061281   -5517.989590       0.000000       0.000000       0.000000   24930.659851  -31564.256725    1115.607284 
   90000     300.761696   -4577.042673   -5474.452674       0.000000       0.000000       0.000000   24996.495710  -31565.255815    1094.307432 
  100000     306.140936   -4613.024582   -5526.485108       0.000000       0.000000       0.000000   24956.441938  -31563.637938    1080.710893 
  110000     306.488641   -4620.116352   -5534.614359       0.000000       0.000000       0.000000   24876.027511  -31568.858501    1158.216632 
  120000     302.865400   -4625.024868   -5528.711881       0.000000       0.000000       0.000000   24979.191546  -31564.521757    1056.618330 
  130000     302.452199   -4571.538838   -5473.992944       0.000000       0.000000       0.000000   25075.896831  -31559.253938    1009.364163 
  140000     290.774563   -4622.707525   -5490.318009       0.000000       0.000000       0.000000   24948.639293  -31562.189365    1123.232063 
  150000     301.753790   -4677.490951   -5577.861153       0.000000       0.000000       0.000000   24947.926540  -31567.579898    1041.792205 
  160000     294.032883   -4679.467851   -5556.800480       0.000000       0.000000       0.000000   24941.046930  -31565.961087    1068.113676 
  170000     307.055512   -4634.269896   -5550.459327       0.000000       0.000000       0.000000   24883.141393  -31561.172921    1127.572201 
  180000     305.809170   -4559.675822   -5472.146428       0.000000       0.000000       0.000000   24991.875079  -31564.882507    1100.861001 
  190000     296.784697   -4676.912951   -5562.456416       0.000000       0.000000       0.000000   24798.008507  -31570.229005    1209.764082 
  200000     304.525783   -4620.104560   -5528.745808       0.000000       0.000000       0.000000   24923.922004  -31561.141926    1108.474115 
  210000     297.217504   -4636.467888   -5523.302761       0.000000       0.000000       0.000000   24899.569319  -31566.908410    1144.036330 
  220000     297.409456   -4646.173542   -5533.581159       0.000000       0.000000       0.000000   24924.698201  -31569.441582    1111.162223 
  230000     297.810277   -4589.542552   -5478.146134       0.000000       0.000000       0.000000   25005.036821  -31565.215689    1082.032734 
  240000     298.604427   -4613.582857   -5504.556017       0.000000       0.000000       0.000000   25004.313999  -31567.867983    1058.997967 
  250000     300.882659   -4678.613671   -5576.384599       0.000000       0.000000       0.000000   24914.405298  -31563.986927    1073.197030 
  260000     307.637058   -4608.843648   -5526.768291       0.000000       0.000000       0.000000   24872.106688  -31561.513382    1162.638403 
  270000     299.035372   -4637.075548   -5529.334559       0.000000       0.000000       0.000000   24937.607477  -31569.103141    1102.161106 
  280000     300.946296   -4614.767657   -5512.728466       0.000000       0.000000       0.000000   24907.233928  -31563.517795    1143.555401 
  290000     300.418921   -4613.971796   -5510.359026       0.000000       0.000000       0.000000   24906.010831  -31563.840600    1147.470743 
  300000     303.204828   -4617.128411   -5521.828205       0.000000       0.000000       0.000000   24880.744514  -31564.278239    1161.705521 
  310000     301.460788   -4708.082783   -5607.578728       0.000000       0.000000       0.000000   24820.227689  -31566.673755    1138.867339 
  320000     294.492714   -4601.683440   -5480.388109       0.000000       0.000000       0.000000   25095.127699  -31560.176242     984.660433 
  330000     308.591292   -4594.544837   -5515.316714       0.000000       0.000000       0.000000   24953.826353  -31567.029385    1097.886318 
  340000     302.167251   -4553.928641   -5455.532523       0.000000       0.000000       0.000000   25046.730859  -31561.793183    1059.529802 
  350000     308.197524   -4546.075968   -5465.672923       0.000000       0.000000       0.000000   25052.988122  -31564.543760    1045.882716 
  360000     303.043640   -4654.376481   -5558.595324       0.000000       0.000000       0.000000   24849.999627  -31568.745430    1160.150479 
  370000     296.059387   -4689.620478   -5572.999770       0.000000       0.000000       0.000000   24876.685818  -31566.921663    1117.236074 
  380000     312.553691   -4630.991571   -5563.586418       0.000000       0.000000       0.000000   24900.856610  -31566.212490    1101.769462 
  390000     295.622592   -4669.689172   -5551.765160       0.000000       0.000000       0.000000   24867.389930  -31566.575250    1147.420161 
  400000     294.596344   -4630.554595   -5509.568474       0.000000       0.000000       0.000000   24940.200367  -31564.573577    1114.804736 
  410000     305.563316   -4561.122216   -5472.859245       0.000000       0.000000       0.000000   25042.168944  -31563.519104    1048.490915 
  420000     306.579795   -4613.188992   -5527.958983       0.000000       0.000000       0.000000   24967.715682  -31566.499347    1070.824682 
  430000     309.481262   -4608.345433   -5531.772794       0.000000       0.000000       0.000000   24969.473218  -31565.140428    1063.894415 
  440000     297.157358   -4673.711373   -5560.366783       0.000000       0.000000       0.000000   24858.837962  -31565.985505    1146.780761 
  450000     296.825901   -4594.095144   -5479.761553       0.000000       0.000000       0.000000   25044.627723  -31563.879581    1039.490306 
  460000     295.130788   -4666.068138   -5546.676686       0.000000       0.000000       0.000000   24898.892275  -31561.934908    1116.365946 
  470000     304.868846   -4656.900428   -5566.565305       0.000000       0.000000       0.000000   24926.173085  -31567.068491    1074.330101 
  480000     287.306083   -4718.550825   -5575.812089       0.000000       0.000000       0.000000   24857.232302  -31570.268096    1137.223704 
  490000     301.945217   -4607.388339   -5508.329718       0.000000       0.000000       0.000000   25036.768384  -31564.843105    1019.745003 
  500000     296.404699   -4642.369253   -5526.778885       0.000000       0.000000       0.000000   24989.380737  -31561.744849    1045.585227 
  510000     297.188172   -4703.719660   -5590.467012       0.000000       0.000000       0.000000   24854.883440  -31565.275384    1119.924932 
  520000     291.737929   -4671.674926   -5542.159892       0.000000       0.000000       0.000000   24956.365229  -31565.375493    1066.850372 
  530000     302.423316   -4666.208720   -5568.576647       0.000000       0.000000       0.000000   24886.348913  -31563.838774    1108.913213 
  540000     299.365181   -4613.281095   -5506.524188       0.000000       0.000000       0.000000   25012.923634  -31569.736632    1050.288810 
  550000     300.520241   -4564.865799   -5461.555349       0.000000       0.000000       0.000000   25011.687170  -31564.666902    1091.424384 
  560000     303.542482   -4642.097068   -5547.804352       0.000000       0.000000       0.000000   24876.265150  -31566.243664    1142.174162 
  570000     297.600525   -4619.523498   -5507.501225       0.000000       0.000000       0.000000   24979.657926  -31561.611863    1074.452712 
  580000     299.900307   -4635.086621   -5529.926417       0.000000       0.000000       0.000000   24886.819741  -31566.603910    1149.857751 
  590000     304.209095   -4583.859216   -5491.555532       0.000000       0.000000       0.000000   25040.446206  -31563.364110    1031.362373 
  600000     310.266400   -4569.258099   -5495.028147       0.000000       0.000000       0.000000   25069.294876  -31567.621972    1003.298948 
  610000     291.593870   -4679.035122   -5549.090247       0.000000       0.000000       0.000000   24963.027718  -31568.854699    1056.736735 
  620000     294.243597   -4604.010800   -5481.972155       0.000000       0.000000       0.000000   25008.672744  -31562.300923    1071.656024 
  630000     297.669805   -4545.182361   -5433.366806       0.000000       0.000000       0.000000   25132.849785  -31559.514918     993.298327 
  640000     299.635835   -4615.117317   -5509.167984       0.000000       0.000000       0.000000   24979.739249  -31561.879411    1072.972177 
  650000     295.042884   -4675.632052   -5555.978311       0.000000       0.000000       0.000000   24874.574851  -31562.283324    1131.730162 
  660000     296.156102   -4639.688831   -5523.356702       0.000000       0.000000       0.000000   24925.199314  -31564.924336    1116.368320 
  670000     305.114641   -4657.135558   -5567.533836       0.000000       0.000000       0.000000   24894.796859  -31566.159840    1103.829145 
  680000     298.611467   -4683.403757   -5574.397922       0.000000       0.000000       0.000000   24887.291965  -31562.725826    1101.035939 
  690000     301.798264   -4659.783150   -5560.286053       0.000000       0.000000       0.000000   24903.908467  -31567.035221    1102.840700 
  700000     305.338683   -4585.762797   -5496.829568       0.000000       0.000000       0.000000   24983.209863  -31566.129211    1086.089780 
  710000     301.258913   -4718.543877   -5617.437469       0.000000       0.000000       0.000000   24856.448195  -31568.663777    1094.778113 
  720000     302.597677   -4570.871887   -5473.760071       0.000000       0.000000       0.000000   25050.326017  -31567.596279    1043.510191 
  730000     289.712866   -4647.725814   -5512.168417       0.000000       0.000000       0.000000   24930.102627  -31563.101858    1120.830814 
  740000     303.662834   -4685.337562   -5591.403951       0.000000       0.000000       0.000000   24847.095088  -31568.393640    1129.894600 
  750000     301.590438   -4511.658164   -5411.540958       0.000000       0.000000       0.000000   25094.750731  -31563.582007    1057.290318 
  760000     304.730152   -4629.441879   -5538.692921       0.000000       0.000000       0.000000   24992.492337  -31562.277485    1031.092228 
  770000     308.099855   -4622.794593   -5542.100124       0.000000       0.000000       0.000000   24932.183285  -31563.103420    1088.820011 
  780000     302.630551   -4585.138387   -5488.124659       0.000000       0.000000       0.000000   25044.613730  -31563.307273    1030.568884 
  790000     297.704181   -4676.614430   -5564.901445       0.000000       0.000000       0.000000   24866.442730  -31566.178025    1134.833850 
  800000     296.187400   -4681.330648   -5565.091906       0.000000       0.000000       0.000000   24914.822771  -31565.594687    1085.680010 
  810000     297.144560   -4638.044147   -5524.661369       0.000000       0.000000       0.000000   24966.545884  -31562.506704    1071.299452 
  820000     299.832754   -4639.331892   -5533.970121       0.000000       0.000000       0.000000   24927.020784  -31563.271557    1102.280652 
  830000     298.219621   -4717.922025   -5607.747004       0.000000       0.000000       0.000000   24857.158168  -31558.774349    1093.869177 
  840000     294.357132   -4647.583865   -5525.883986       0.000000       0.000000       0.000000   24959.774543  -31563.323624    1077.665096 
  850000     300.536638   -4619.621356   -5516.359831       0.000000       0.000000       0.000000   24919.675759  -31563.838839    1127.803249 
  860000     295.141625   -4690.334102   -5570.974983       0.000000       0.000000       0.000000   24861.059700  -31565.018400    1132.983716 
  870000     291.102557   -4626.197674   -5494.786823       0.000000       0.000000       0.000000   25039.544531  -31565.420284    1031.088931 
  880000     297.949015   -4639.218443   -5528.235992       0.000000       0.000000       0.000000   24945.284337  -31563.786328    1090.266000 
  890000     289.508556   -4635.009037   -5498.842021       0.000000       0.000000       0.000000   24962.589855  -31562.660657    1101.228781 
  900000     295.558624   -4697.321966   -5579.207087       0.000000       0.000000       0.000000   24827.276067  -31568.393065    1161.909912 
  910000     288.205021   -4735.283479   -5595.226986       0.000000       0.000000       0.000000   24851.121601  -31566.603684    1120.255097 
  920000     299.564028   -4641.979464   -5535.815873       0.000000       0.000000       0.000000   24930.886246  -31566.439147    1099.737028 
  930000     302.145177   -4675.074192   -5576.612208       0.000000       0.000000       0.000000   24928.618313  -31564.698550    1059.468028 
  940000     304.112288   -4602.099338   -5509.506802       0.000000       0.000000       0.000000   24983.395068  -31563.459752    1070.557882 
  950000     296.895706   -4645.122336   -5530.997030       0.000000       0.000000       0.000000   24964.136769  -31570.308855    1075.175057 
  960000     293.566198   -4653.683149   -5529.623288       0.000000       0.000000       0.000000   24941.439063  -31565.042096    1093.979744 
  970000     292.343102   -4644.831929   -5517.122603       0.000000       0.000000       0.000000   25008.657979  -31565.659698    1039.879116 
  980000     311.881841   -4607.602809   -5538.192996       0.000000       0.000000       0.000000   24936.584970  -31564.806367    1090.028401 
  990000     306.229469   -4635.061254   -5548.785944       0.000000       0.000000       0.000000   24935.914024  -31567.673784    1082.973817 
 1000000     293.875362   -4678.351777   -5555.214396       0.000000       0.000000       0.000000   24938.101113  -31564.057021    1070.741513 
 1010000     292.250222   -4678.652436   -5550.665976       0.000000       0.000000       0.000000   24869.658285  -31565.958884    1145.634623 
 1020000     309.787332   -4548.556839   -5472.897450       0.000000       0.000000       0.000000   25031.253442  -31559.952661    1055.801769 
 1030000     297.121964   -4650.637073   -5537.186872       0.000000       0.000000       0.000000   24904.177671  -31563.965530    1122.600987 
 1040000     302.057324   -4623.779284   -5525.055167       0.000000       0.000000       0.000000   24924.671945  -31560.293313    1110.566201 
 1050000     305.665723   -4590.977317   -5503.019907       0.000000       0.000000       0.000000   24933.162127  -31561.171271    1124.989237 
 1060000     297.355634   -4669.434401   -5556.681426       0.000000       0.000000       0.000000   24891.956293  -31567.638533    1119.000814 
 1070000     306.286380   -4634.579552   -5548.474053       0.000000       0.000000       0.000000   24893.799416  -31566.874617    1124.601147 
 1080000     312.099052   -4514.611656   -5445.849954       0.000000       0.000000       0.000000   25059.970283  -31560.604434    1054.784197 
 1090000     305.589595   -4562.685269   -5474.500708       0.000000       0.000000       0.000000   25115.607241  -31565.823824     975.715875 
 1100000     290.306850   -4650.290561   -5516.505486       0.000000       0.000000       0.000000   24946.804120  -31569.188820    1105.879213 
 1110000     300.489659   -4601.677982   -5498.276280       0.000000       0.000000       0.000000   24967.716583  -31566.682672    1100.689809 
 1120000     296.382464   -4654.061138   -5538.404424       0.000000       0.000000       0.000000   24912.440353  -31567.123183    1116.278407 
 1130000     292.748744   -4688.701808   -5562.202836       0.000000       0.000000       0.000000   24869.695758  -31563.756508    1131.857914 
 1140000     297.266989   -4602.591955   -5489.574480       0.000000       0.000000       0.000000   25012.578312  -31564.412925    1062.260133 
 1150000     309.441031   -4563.610176   -5486.917496       0.000000       0.000000       0.000000   25004.695278  -31563.813575    1072.200801 
 1160000     300.902618   -4645.294074   -5543.124555       0.000000       0.000000       0.000000   24981.589569  -31563.380067    1038.665943 
 1170000     298.616011   -4588.625342   -5479.633066       0.000000       0.000000       0.000000   24942.143571  -31562.544560    1140.767924 
 1180000     305.332316   -4642.490490   -5553.538263       0.000000       0.000000       0.000000   24938.385550  -31565.820836    1073.897023 
 1190000     309.406393   -4616.004171   -5539.208139       0.000000       0.000000       0.000000   24891.931580  -31567.296469    1136.156750 
 1200000     297.895673   -4609.797346   -5498.655733       0.000000       0.000000       0.000000   24986.779146  -31557.968228    1072.533349 
 1210000     297.326202   -4640.515349   -5527.674554       0.000000       0.000000       0.000000   25036.382862  -31566.617449    1002.560033 
 1220000     300.089708   -4597.571939   -5492.976866       0.000000       0.000000       0.000000   24977.381248  -31563.364340    1093.006226 
 1230000     297.517429   -4625.180612   -5512.910396       0.000000       0.000000       0.000000   24967.260833  -31565.149496    1084.978267 
 1240000     293.595329   -4694.361405   -5570.388465       0.000000       0.000000       0.000000   24851.843224  -31564.490963    1142.259274 
 1250000     301.458256   -4692.212167   -5591.700555       0.000000       0.000000       0.000000   24786.508390  -31564.364550    1186.155606 
 1260000     283.870710   -4664.133813   -5511.144642       0.000000       0.000000       0.000000   25038.428703  -31562.437665    1012.864320 
 1270000     290.433093   -4644.021511   -5510.613120       0.000000       0.000000       0.000000   24943.366447  -31562.466036    1108.486469 
 1280000     308.899285   -4559.132276   -5480.823141       0.000000       0.000000       0.000000   24976.127447  -31562.953147    1106.002560 
 1290000     309.841772   -4607.844013   -5532.347059       0.000000       0.000000       0.000000   24904.654814  -31560.484003    1123.482130 
 1300000     304.199612   -4615.472920   -5523.140942       0.000000       0.000000       0.000000   24988.138224  -31565.668625    1054.389459 
 1310000     314.700092   -4625.749254   -5564.748512       0.000000       0.000000       0.000000   24942.677418  -31564.917307    1057.491378 
 1320000     311.168022   -4543.815418   -5472.275718       0.000000       0.000000       0.000000   25068.632783  -31563.641908    1022.733407 
 1330000     293.070377   -4643.147381   -5517.608093       0.000000       0.000000       0.000000   24954.458875  -31567.243970    1095.177003 
 1340000     301.173194   -4661.557851   -5560.195674       0.000000       0.000000       0.000000   24908.638254  -31563.297344    1094.463416 
 1350000     313.473380   -4559.556479   -5494.895485       0.000000       0.000000       0.000000   24980.697669  -31561.589364    1085.996211 
 1360000     292.163333   -4670.030958   -5541.785241       0.000000       0.000000       0.000000   24946.075762  -31563.952803    1076.091801 
 1370000     295.893890   -4589.932627   -5472.818112       0.000000       0.000000       0.000000   25005.819301  -31560.401744    1081.764332 
 1380000     291.746592   -4671.708062   -5542.218876       0.000000       0.000000       0.000000   24773.944306  -31564.910426    1248.747244 
 1390000     301.150660   -4660.160907   -5558.731493       0.000000       0.000000       0.000000   24855.973607  -31568.430284    1153.725183 
 1400000     300.280050   -4617.305477   -5513.278347       0.000000       0.000000       0.000000   24996.662383  -31561.696494    1051.755764 
 1410000     301.488869   -4669.978420   -5569.558153       0.000000       0.000000       0.000000   24918.332627  -31565.381642    1077.490863 
 1420000     304.128963   -4623.299284   -5530.756503       0.000000       0.000000       0.000000   24931.133240  -31565.843654    1103.953912 
 1430000     298.777834   -4594.926375   -5486.416944       0.000000       0.000000       0.000000   25079.740584  -31563.319277     997.161749 
 1440000     295.627489   -4653.261697   -5535.352297       0.000000       0.000000       0.000000   24924.623652  -31561.785958    1101.810009 
 1450000     311.902293   -4621.582909   -5552.234120       0.000000       0.000000       0.000000   24936.045783  -31566.113765    1077.833862 
 1460000     300.727502   -4599.508971   -5496.816944       0.000000       0.000000       0.000000   24944.540832  -31564.376705    1123.018929 
 1470000     306.988633   -4620.771791   -5536.761668       0.000000       0.000000       0.000000   24938.860872  -31562.701135    1087.078595 
 1480000     308.892261   -4597.819968   -5519.489874       0.000000       0.000000       0.000000   24989.609068  -31564.067112    1054.968170 
 1490000     292.741294   -4671.687598   -5545.166396       0.000000       0.000000       0.000000   24918.919556  -31563.293148    1099.207196 
 1500000     304.243356   -4643.641475   -5551.440019       0.000000       0.000000       0.000000   24901.717399  -31567.254953    1114.097535 
 1510000     298.043086   -4619.446497   -5508.744733       0.000000       0.000000       0.000000   25034.489621  -31564.892846    1021.658492 
 1520000     304.176464   -4597.246000   -5504.844955       0.000000       0.000000       0.000000   24911.331075  -31564.658137    1148.482107 
 1530000     306.124605   -4625.460234   -5538.872031       0.000000       0.000000       0.000000   24902.471126  -31565.736607    1124.393450 
 1540000     298.997910   -4650.068633   -5542.215863       0.000000       0.000000       0.000000   24976.304207  -31565.083785    1046.563715 
 1550000     287.581826   -4690.169666   -5548.253691       0.000000       0.000000       0.000000   24941.625774  -31568.406476    1078.527011 
 1560000     305.607148   -4567.050887   -5478.918701       0.000000       0.000000       0.000000   25045.277911  -31561.773949    1037.577337 
 1570000     288.205371   -4714.472782   -5574.417334       0.000000       0.000000       0.000000   24798.035947  -31560.961330    1188.508050 
 1580000     296.420615   -4666.976901   -5551.434024       0.000000       0.000000       0.000000   24919.037404  -31566.550636    1096.079208 
 1590000     305.186283   -4634.759699   -5545.371739       0.000000       0.000000       0.000000   24947.120075  -31566.973341    1074.481526 
 1600000     301.796897   -4655.101246   -5555.600068       0.000000       0.000000       0.000000   24881.586389  -31565.729361    1128.542905 
 1610000     299.884859   -4643.148718   -5537.942419       0.000000       0.000000       0.000000   24956.175031  -31563.778997    1069.661547 
 1620000     292.795946   -4615.688682   -5489.330550       0.000000       0.000000       0.000000   24955.238798  -31559.597219    1115.027871 
 1630000     299.614788   -4627.340040   -5521.327906       0.000000       0.000000       0.000000   24914.180502  -31562.307548    1126.799140 
 1640000     299.284656   -4595.545429   -5488.548250       0.000000       0.000000       0.000000   24988.427694  -31559.187447    1082.211504 
 1650000     294.520147   -4661.578733   -5540.365256       0.000000       0.000000       0.000000   24967.948790  -31565.876715    1057.562669 
 1660000     290.163031   -4660.992740   -5526.778540       0.000000       0.000000       0.000000   24941.919778  -31566.289031    1097.590713 
 1670000     308.294134   -4614.227857   -5534.113075       0.000000       0.000000       0.000000   24951.849398  -31564.765863    1078.803391 
 1680000     323.534388   -4560.683968   -5526.042917       0.000000       0.000000       0.000000   25021.771844  -31564.216276    1016.401516 
 1690000     305.094762   -4656.230558   -5566.569521       0.000000       0.000000       0.000000   24957.317685  -31567.343103    1043.455897 
 1700000     307.107738   -4583.925824   -5500.271086       0.000000       0.000000       0.000000   24970.404652  -31565.426454    1094.750716 
 1710000     302.357085   -4625.389179   -5527.559487       0.000000       0.000000       0.000000   24923.954503  -31563.804659    1112.290669 
 1720000     317.629842   -4543.104360   -5490.845379       0.000000       0.000000       0.000000   24970.164188  -31560.627737    1099.618170 
 1730000     310.487105   -4591.246861   -5517.675447       0.000000       0.000000       0.000000   24997.106292  -31564.255846    1049.474107 
 1740000     289.599025   -4656.656596   -5520.759521       0.000000       0.000000       0.000000   24919.953725  -31562.918039    1122.204793 
 1750000     305.141362   -4603.814299   -5514.292305       0.000000       0.000000       0.000000   25013.061210  -31567.180568    1039.827053 
 1760000     299.763614   -4687.479741   -5581.911673       0.000000       0.000000       0.000000   24866.008568  -31566.333987    1118.413746 
 1770000     302.170945   -4656.448446   -5558.063349       0.000000       0.000000       0.000000   24941.444591  -31566.357599    1066.849659 
 1780000     302.773541   -4567.494884   -5470.907809       0.000000       0.000000       0.000000   25071.476689  -31567.734474    1025.349976 
 1790000     292.730348   -4654.073960   -5527.520097       0.000000       0.000000       0.000000   25023.816448  -31564.464806    1013.128261 
 1800000     301.086852   -4663.710711   -5562.090907       0.000000       0.000000       0.000000   24841.107977  -31565.521496    1162.322612 
 1810000     296.421829   -4689.619851   -5574.080595       0.000000       0.000000       0.000000   24853.956932  -31564.602323    1136.564796 
 1820000     295.357649   -4651.342637   -5532.628092       0.000000       0.000000       0.000000   24951.774998  -31563.324636    1078.921546 
 1830000     297.938429   -4632.635794   -5521.621756       0.000000       0.000000       0.000000   24928.663489  -31564.703736    1114.418491 
 1840000     305.244450   -4591.199603   -5501.985202       0.000000       0.000000       0.000000   25001.095740  -31564.910519    1061.829577 
 1850000     312.122727   -4611.168652   -5542.477591       0.000000       0.000000       0.000000   24914.280473  -31564.900316    1108.142252 
 1860000     299.124330   -4619.857724   -5512.382167       0.000000       0.000000       0.000000   24966.918538  -31562.349302    1083.048598 
 1870000     307.163279   -4641.972696   -5558.483679       0.000000       0.000000       0.000000   24903.708793  -31567.112998    1104.920526 
 1880000     304.114463   -4574.512186   -5481.926142       0.000000       0.000000       0.000000   25003.250589  -31564.663223    1079.486492 
 1890000     290.374570   -4635.844781   -5502.261769       0.000000       0.000000       0.000000   24888.906431  -31567.359261    1176.191061 
 1900000     313.305961   -4608.972237   -5543.811698       0.000000       0.000000       0.000000   24860.208320  -31565.288280    1161.268262 
 1910000     304.024656   -4618.939838   -5526.085828       0.000000       0.000000       0.000000   24971.660194  -31563.955703    1066.209681 
 1920000     304.103827   -4625.591960   -5532.974179       0.000000       0.000000       0.000000   24962.432053  -31563.175397    1067.769165 
 1930000     303.724493   -4588.033313   -5494.283679       0.000000       0.000000       0.000000   24933.673207  -31565.193494    1137.236607 
 1940000     313.509650   -4532.509899   -5467.957127       0.000000       0.000000       0.000000   25065.175355  -31565.682851    1032.550369 
 1950000     300.555098   -4632.580418   -5529.373973       0.000000       0.000000       0.000000   24880.993725  -31561.407266    1151.039568 
 1960000     307.205342   -4611.150214   -5527.786706       0.000000       0.000000       0.000000   24951.436742  -31563.602697    1084.379248 
 1970000     301.213124   -4648.344034   -5547.101000       0.000000       0.000000       0.000000   24980.666752  -31565.255131    1037.487378 
 1980000     291.927519   -4656.495306   -5527.545969       0.000000       0.000000       0.000000   24938.870527  -31565.314896    1098.898400 
 1990000     302.070406   -4676.423303   -5577.738219       0.000000       0.000000       0.000000   24838.492982  -31565.119542    1148.888341 
 2000000     306.378625   -4642.053586   -5556.223327       0.000000       0.000000       0.000000   24928.973726  -31567.841061    1082.644008 
 2010000     294.439475   -4597.200100   -5475.745914       0.000000       0.000000       0.000000   25029.874109  -31564.179557    1058.559534 
 2020000     296.814815   -4665.652761   -5551.286093       0.000000       0.000000       0.000000   24919.244798  -31563.865796    1093.334905 
 2030000     304.328632   -4626.178075   -5534.231064       0.000000       0.000000       0.000000   24929.482420  -31565.282315    1101.568830 
 2040000     301.417677   -4605.297951   -5504.665261       0.000000       0.000000       0.000000   25044.549845  -31564.560666    1015.345561 
 2050000     299.473794   -4636.046057   -5529.613226       0.000000       0.000000       0.000000   24979.308842  -31562.744561    1053.822492 
 2060000     307.844308   -4595.505700   -5514.048732       0.000000       0.000000       0.000000   25041.676305  -31567.345573    1011.620537 
 2070000     299.396698   -4636.498278   -5529.835410       0.000000       0.000000       0.000000   25012.513850  -31569.255084    1026.905824 
 2080000     290.695827   -4691.269567   -5558.645119       0.000000       0.000000       0.000000   24912.987912  -31563.116544    1091.483513 
 2090000     304.959661   -4607.585969   -5517.521817       0.000000       0.000000       0.000000   24974.443855  -31566.105586    1074.139914 
 2100000     298.606935   -4691.088303   -5582.068945       0.000000       0.000000       0.000000   24856.483387  -31565.935697    1127.383364 
 2110000     301.944600   -4626.412837   -5527.352376       0.000000       0.000000       0.000000   24941.960433  -31564.069159    1094.756350 
 2120000     301.391235   -4591.964155   -5491.252567       0.000000       0.000000       0.000000   25001.003987  -31560.536085    1068.279531 
 2130000     296.225041   -4639.482853   -5523.356423       0.000000       0.000000       0.000000   25013.306040  -31564.695158    1028.032695 
 2140000     302.932816   -4682.054731   -5585.942900       0.000000       0.000000       0.000000   24872.078560  -31561.784378    1103.762917 
 2150000     304.034508   -4620.516955   -5527.692341       0.000000       0.000000       0.000000   24962.954540  -31564.483803    1073.836922 
 2160000     299.509153   -4638.552185   -5532.224859       0.000000       0.000000       0.000000   24984.180524  -31568.568970    1052.163588 
 2170000     296.258892   -4650.047181   -5534.021756       0.000000       0.000000       0.000000   24934.588903  -31563.235280    1094.624621 
 2180000     291.499017   -4667.180491   -5536.952594       0.000000       0.000000       0.000000   24953.251711  -31564.235885    1074.031581 
 2190000     311.210659   -4601.755451   -5530.342971       0.000000       0.000000       0.000000   24949.369145  -31561.245434    1081.533318 
 2200000     282.427057   -4770.385811   -5613.089082       0.000000       0.000000       0.000000   24864.432850  -31567.751491    1090.229559 
 2210000     296.406909   -4609.007062   -5493.423289       0.000000       0.000000       0.000000   24994.456315  -31562.718131    1074.838527 
 2220000     313.576223   -4579.256997   -5514.902866       0.000000       0.000000       0.000000   24991.983788  -31564.445496    1057.558842 
 2230000     301.756709   -4579.985483   -5480.364393       0.000000       0.000000       0.000000   25025.494929  -31562.783839    1056.924517 
 2240000     315.133025   -4539.048275   -5479.339316       0.000000       0.000000       0.000000   24964.945285  -31557.199751    1112.915150 
 2250000     299.623321   -4621.367649   -5515.380975       0.000000       0.000000       0.000000   24991.010638  -31565.127143    1058.735530 
 2260000     295.511781   -4597.092565   -5478.837917       0.000000       0.000000       0.000000   25091.375922  -31561.682318     991.468479 
 2270000     309.114426   -4613.362223   -5535.695023       0.000000       0.000000       0.000000   24891.010203  -31566.730588    1140.025361 
 2280000     291.232075   -4641.139931   -5510.115536       0.000000       0.000000       0.000000   24996.731228  -31564.417084    1057.570320 
 2290000     296.425859   -4644.218146   -5528.690916       0.000000       0.000000       0.000000   24932.999068  -31564.595084    1102.905100 
 2300000     296.408917   -4580.959935   -5465.382152       0.000000       0.000000       0.000000   25045.998184  -31563.551177    1052.170841 
 2310000     293.588470   -4687.023261   -5563.029853       0.000000       0.000000       0.000000   24905.798716  -31565.121118    1096.292549 
 2320000     307.991972   -4626.570008   -5545.553638       0.000000       0.000000       0.000000   24888.562083  -31564.950936    1130.835214 
 2330000     304.075955   -4591.944775   -5499.243830       0.000000       0.000000       0.000000   24941.335241  -31564.388023    1123.808951 
 2340000     306.780927   -4563.866978   -5479.237104       0.000000       0.000000       0.000000   25024.891155  -31567.528690    1063.400432 
 2350000     311.005926   -4578.961628   -5506.938268       0.000000       0.000000       0.000000   24944.000640  -31563.123891    1112.184983 
 2360000     285.754277   -4645.235880   -5497.866880       0.000000       0.000000       0.000000   24960.574843  -31566.879099    1108.437376 
 2370000     294.438823   -4690.196147   -5568.740016       0.000000       0.000000       0.000000   24919.677892  -31568.521225    1080.103317 
 2380000     294.748476   -4641.899225   -5521.367033       0.000000       0.000000       0.000000   24995.078034  -31563.363554    1046.918487 
 2390000     306.119628   -4601.665226   -5515.062173       0.000000       0.000000       0.000000   24956.524410  -31562.336447    1090.749863 
 2400000     301.911984   -4706.990455   -5607.832675       0.000000       0.000000       0.000000   24809.020959  -31563.618626    1146.764992 
 2410000     298.884774   -4670.519321   -5562.328978       0.000000       0.000000       0.000000   24932.744888  -31570.177651    1075.103784 
 2420000     307.920722   -4618.948460   -5537.719497       0.000000       0.000000       0.000000   24938.959324  -31559.483316    1082.804495 
 2430000     298.407249   -4615.944637   -5506.329458       0.000000       0.000000       0.000000   24960.877073  -31565.795429    1098.588899 
 2440000     310.672541   -4611.556103   -5538.537992       0.000000       0.000000       0.000000   24922.082623  -31564.712926    1104.092312 
 2450000     295.536220   -4661.430616   -5543.248889       0.000000       0.000000       0.000000   24910.686542  -31561.178126    1107.242694 
 2460000     310.397245   -4576.986510   -5503.146972       0.000000       0.000000       0.000000   25001.487193  -31568.293825    1063.659659 
 2470000     306.877986   -4613.518621   -5529.178349       0.000000       0.000000       0.000000   24942.662263  -31567.346923    1095.506311 
 2480000     306.167776   -4603.111344   -5516.651957       0.000000       0.000000       0.000000   24962.947927  -31564.105569    1084.505686 
 2490000     305.594891   -4599.519167   -5511.350411       0.000000       0.000000       0.000000   24965.024519  -31564.450643    1088.075713 
 2500000     309.020023   -4640.280578   -5562.331699       0.000000       0.000000       0.000000   24979.808337  -31567.920021    1025.779986 
 2510000     290.781586   -4636.333543   -5503.964980       0.000000       0.000000       0.000000   25005.542529  -31563.850277    1054.342768 
 2520000     297.182965   -4658.171574   -5544.903387       0.000000       0.000000       0.000000   24940.125308  -31566.185758    1081.157062 
 2530000     301.146717   -4654.804642   -5553.363463       0.000000       0.000000       0.000000   24892.408287  -31566.453544    1120.681794 
 2540000     292.090806   -4614.969194   -5486.507071       0.000000       0.000000       0.000000   24894.221424  -31566.177630    1185.449135 
 2550000     319.384621   -4541.580865   -5494.557778       0.000000       0.000000       0.000000   24996.165055  -31567.956748    1077.233916 
 2560000     299.367509   -4617.171833   -5510.421871       0.000000       0.000000       0.000000   24920.643707  -31562.916100    1131.850523 
 2570000     301.945405   -4588.394271   -5489.336210       0.000000       0.000000       0.000000   25053.347603  -31566.770352    1024.086539 
 2580000     304.060552   -4675.031919   -5582.285015       0.000000       0.000000       0.000000   24851.297884  -31567.715235    1134.132335 
 2590000     297.803517   -4643.730565   -5532.313977       0.000000       0.000000       0.000000   24973.724175  -31558.974429    1052.936276 
 2600000     301.358597   -4649.011878   -5548.202906       0.000000       0.000000       0.000000   24942.393506  -31568.143618    1077.547206 
 2610000     302.457108   -4699.392224   -5601.860978       0.000000       0.000000       0.000000   24887.452951  -31568.326409    1079.012480 
 2620000     304.985387   -4660.609968   -5570.622579       0.000000       0.000000       0.000000   24837.163660  -31563.871309    1156.085070 
 2630000     310.560655   -4602.377271   -5529.025315       0.000000       0.000000       0.000000   24899.431847  -31561.624224    1133.167062 
 2640000     304.034006   -4636.614495   -5543.788385       0.000000       0.000000       0.000000   24869.722568  -31562.017475    1148.506523 
 2650000     298.356408   -4640.741324   -5530.974446       0.000000       0.000000       0.000000   24968.671992  -31564.831541    1065.185102 
 2660000     310.362008   -4660.068397   -5586.123721       0.000000       0.000000       0.000000   24824.161977  -31566.178703    1155.893005 
 2670000     302.118768   -4652.112775   -5553.571994       0.000000       0.000000       0.000000   24858.193855  -31559.767338    1148.001490 
 2680000     300.528581   -4635.204000   -5531.918434       0.000000       0.000000       0.000000   25031.889467  -31569.206380    1005.398479 
 2690000     307.919031   -4692.320219   -5611.086208       0.000000       0.000000       0.000000   24869.284652  -31565.163732    1084.792872 
 2700000     307.622308   -4598.152951   -5516.033582       0.000000       0.000000       0.000000   25028.527450  -31560.232775    1015.671743 
 2710000     303.894579   -4656.360242   -5563.118108       0.000000       0.000000       0.000000   24952.260978  -31565.826271    1050.447184 
 2720000     304.555717   -4602.527463   -5511.258028       0.000000       0.000000       0.000000   24935.731864  -31563.875721    1116.885830 
 2730000     299.107505   -4691.085876   -5583.560117       0.000000       0.000000       0.000000   24846.405055  -31563.186695    1133.221523 
 2740000     293.324621   -4642.472577   -5517.691901       0.000000       0.000000       0.000000   24919.908378  -31565.069384    1127.469105 
 2750000     294.257087   -4593.330914   -5471.332521       0.000000       0.000000       0.000000   24916.779527  -31562.377823    1174.265775 
 2760000     305.903430   -4589.923052   -5502.674911       0.000000       0.000000       0.000000   25013.898942  -31566.627676    1050.053822 
 2770000     291.353367   -4635.355484   -5504.692998       0.000000       0.000000       0.000000   24986.809217  -31563.903511    1072.401297 
 2780000     304.202501   -4646.968678   -5554.645321       0.000000       0.000000       0.000000   24854.667564  -31562.964497    1153.651611 
 2790000     290.277839   -4629.611575   -5495.739940       0.000000       0.000000       0.000000   25021.586469  -31560.551867    1043.225458 
 2800000     303.411455   -4676.953310   -5582.269637       0.000000       0.000000       0.000000   24807.113583  -31570.702984    1181.319764 
 2810000     310.390334   -4575.606845   -5501.746687       0.000000       0.000000       0.000000   24945.637575  -31565.943744    1118.559482 
 2820000     286.544936   -4684.554426   -5539.544586       0.000000       0.000000       0.000000   24905.410312  -31566.224193    1121.269295 
 2830000     297.880462   -4604.688770   -5493.501769       0.000000       0.000000       0.000000   24893.625502  -31559.947033    1172.819763 
 2840000     295.009598   -4641.706094   -5521.953036       0.000000       0.000000       0.000000   24882.580686  -31563.539338    1159.005615 
 2850000     307.328006   -4620.168771   -5537.171266       0.000000       0.000000       0.000000   24940.139868  -31563.557922    1086.246788 
 2860000     300.016234   -4674.682543   -5569.868241       0.000000       0.000000       0.000000   24883.843617  -31561.583322    1107.871464 
 2870000     298.173450   -4647.595849   -5537.283064       0.000000       0.000000       0.000000   24932.137363  -31564.344789    1094.924361 
 2880000     307.047049   -4633.806636   -5549.970814       0.000000       0.000000       0.000000   24898.029151  -31564.773848    1116.773883 
 2890000     300.540338   -4624.313981   -5521.063495       0.000000       0.000000       0.000000   24999.073461  -31561.402097    1041.265140 
 2900000     292.942743   -4671.991425   -5546.071303       0.000000       0.000000       0.000000   24955.795750  -31564.248101    1062.381048 
 2910000     297.761985   -4639.253284   -5527.712773       0.000000       0.000000       0.000000   24954.330801  -31565.748452    1083.704878 
 2920000     304.732629   -4563.778253   -5473.036684       0.000000       0.000000       0.000000   25091.085907  -31563.151030     999.028439 
 2930000     291.912223   -4708.057277   -5579.062299       0.000000       0.000000       0.000000   24878.812548  -31565.736770    1107.861923 
 2940000     312.591849   -4555.390877   -5488.099580       0.000000       0.000000       0.000000   24983.710106  -31564.328436    1092.518750 
 2950000     284.858239   -4676.010415   -5525.967824       0.000000       0.000000       0.000000   24958.832902  -31568.768655    1083.967929 
 2960000     293.687092   -4617.521020   -5493.821881       0.000000       0.000000       0.000000   24991.251549  -31563.830626    1078.757196 
 2970000     288.299221   -4655.451216   -5515.675797       0.000000       0.000000       0.000000   25007.675715  -31563.601216    1040.249704 
 2980000     299.020304   -4603.429022   -5495.643072       0.000000       0.000000       0.000000   25002.785068  -31563.081491    1064.653352 
 2990000     299.251206   -4655.817577   -5548.720591       0.000000       0.000000       0.000000   24929.397938  -31564.224994    1086.106465 
 3000000     285.033062   -4738.919792   -5589.398835       0.000000       0.000000       0.000000   24881.121464  -31563.805120    1093.284821 
 3010000     304.585132   -4556.665772   -5465.484107       0.000000       0.000000       0.000000   25027.876233  -31567.999195    1074.638855 
 3020000     313.077047   -4570.391703   -5504.548134       0.000000       0.000000       0.000000   25055.457748  -31565.802047    1005.796164 
 3030000     291.450164   -4637.025709   -5506.652044       0.000000       0.000000       0.000000   24961.529234  -31561.735342    1093.554064 
 3040000     308.802752   -4613.770316   -5535.173145       0.000000       0.000000       0.000000   24939.662263  -31565.939847    1091.104438 
 3050000     312.367743   -4709.893476   -5641.933493       0.000000       0.000000       0.000000   24769.238153  -31568.240668    1157.069022 
 3060000     304.892758   -4594.923920   -5504.660145       0.000000       0.000000       0.000000   25052.638805  -31565.210357    1007.911407 
 3070000     310.954415   -4570.267975   -5498.090916       0.000000       0.000000       0.000000   25014.398289  -31568.520060    1056.030855 
 3080000     293.407226   -4672.942080   -5548.407880       0.000000       0.000000       0.000000   24921.972173  -31566.901830    1096.521778 
 3090000     288.116676   -4629.637460   -5489.317363       0.000000       0.000000       0.000000   25005.996341  -31563.271335    1067.957630 
 3100000     299.980493   -4591.546283   -5486.625336       0.000000       0.000000       0.000000   25043.028093  -31561.209200    1031.555771 
 3110000     288.636099   -4624.630120   -5485.859874       0.000000       0.000000       0.000000   25007.543119  -31566.297648    1072.894656 
 3120000     298.719584   -4604.551824   -5495.868589       0.000000       0.000000       0.000000   24989.868495  -31565.993520    1080.256435 
 3130000     306.892490   -4627.017604   -5542.720610       0.000000       0.000000       0.000000   24933.031882  -31563.370614    1087.618122 
 3140000     317.758580   -4608.298469   -5556.423616       0.000000       0.000000       0.000000   24915.434516  -31564.252665    1092.394534 
 3150000     303.940968   -4574.294356   -5481.190637       0.000000       0.000000       0.000000   24976.844118  -31561.474232    1103.439478 
 3160000     304.177914   -4653.319108   -5560.922388       0.000000       0.000000       0.000000   24931.572932  -31563.822679    1071.327359 
 3170000     295.877464   -4605.967685   -5488.804157       0.000000       0.000000       0.000000   24940.528304  -31557.977931    1128.645471 
 3180000     299.209949   -4606.173941   -5498.953852       0.000000       0.000000       0.000000   24902.922226  -31562.607210    1160.731132 
 3190000     299.459734   -4607.919926   -5501.445142       0.000000       0.000000       0.000000   24929.684692  -31566.820404    1135.690570 
 3200000     309.082188   -4566.822090   -5489.058698       0.000000       0.000000       0.000000   24987.703247  -31562.398691    1085.636746 
 3210000     279.961278   -4665.012907   -5500.358809       0.000000       0.000000       0.000000   24975.076772  -31559.492581    1084.057000 
 3220000     304.958245   -4610.983677   -5520.915301       0.000000       0.000000       0.000000   25014.257776  -31567.066590    1031.893513 
 3230000     306.194281   -4575.980200   -5489.599895       0.000000       0.000000       0.000000   24951.759080  -31563.070855    1121.711880 
 3240000     294.262294   -4637.305550   -5515.322695       0.000000       0.000000       0.000000   25035.018387  -31567.092449    1016.751367 
 3250000     288.418074   -4614.335224   -5474.914437       0.000000       0.000000       0.000000   25024.889155  -31563.411399    1063.607807 
 3260000     302.147407   -4612.017466   -5513.562137       0.000000       0.000000       0.000000   25001.023157  -31564.611202    1050.025909 
 3270000     294.436855   -4620.082444   -5498.620439       0.000000       0.000000       0.000000   25006.577066  -31561.071472    1055.873967 
 3280000     290.831873   -4621.136111   -5488.917595       0.000000       0.000000       0.000000   24950.468641  -31561.020344    1121.634108 
 3290000     302.568186   -4653.119102   -5555.919291       0.000000       0.000000       0.000000   24851.480153  -31564.708509    1157.309065 
 3300000     301.819729   -4634.799648   -5535.366596       0.000000       0.000000       0.000000   24996.611453  -31561.667883    1029.689833 
 3310000     301.140151   -4678.621371   -5577.160601       0.000000       0.000000       0.000000   24883.491872  -31562.417910    1101.765438 
 3320000     303.319248   -4621.018171   -5526.059371       0.000000       0.000000       0.000000   24910.723818  -31569.438118    1132.654929 
 3330000     297.369798   -4632.619331   -5519.908617       0.000000       0.000000       0.000000   25001.554071  -31564.645612    1043.182923 
 3340000     305.707530   -4679.580981   -5591.748315       0.000000       0.000000       0.000000   24909.848602  -31567.655969    1066.059052 
 3350000     303.924328   -4559.998385   -5466.845017       0.000000       0.000000       0.000000   25091.944861  -31566.156389    1007.366511 
 3360000     315.727248   -4600.594390   -5542.658466       0.000000       0.000000       0.000000   24904.596697  -31567.253295    1119.998132 
 3370000     296.385391   -4650.998133   -5535.350154       0.000000       0.000000       0.000000   24944.848977  -31564.034215    1083.835084 
 3380000     308.758587   -4631.947664   -5553.218713       0.000000       0.000000       0.000000   24951.860336  -31566.075909    1060.996860 
 3390000     299.005054   -4633.997796   -5526.166342       0.000000       0.000000       0.000000   24928.567981  -31564.347454    1109.613132 
 3400000     294.799802   -4601.194848   -5480.815801       0.000000       0.000000       0.000000   25024.132160  -31563.264945    1058.316985 
 3410000     291.414970   -4729.181942   -5598.703265       0.000000       0.000000       0.000000   24897.483396  -31566.147806    1069.961145 
 3420000     298.412048   -4697.287483   -5587.686625       0.000000       0.000000       0.000000   24936.108684  -31565.661748    1041.866440 
 3430000     287.192481   -4607.096311   -5464.018610       0.000000       0.000000       0.000000   25033.064284  -31564.514709    1067.431815 
 3440000     297.591940   -4562.242511   -5450.194621       0.000000       0.000000       0.000000   25106.373718  -31560.251718    1003.683379 
 3450000     309.234441   -4594.158354   -5516.849254       0.000000       0.000000       0.000000   24925.869806  -31563.654142    1120.935082 
 3460000     297.985660   -4638.929573   -5528.056463       0.000000       0.000000       0.000000   24979.491699  -31566.410643    1058.862481 
 3470000     310.804109   -4546.899358   -5474.273818       0.000000       0.000000       0.000000   25058.421370  -31561.488039    1028.792851 
 3480000     305.519844   -4545.655232   -5457.262550       0.000000       0.000000       0.000000   25025.340266  -31565.326808    1082.723992 
 3490000     293.840687   -4572.917380   -5449.676536       0.000000       0.000000       0.000000   25044.113250  -31565.797059    1072.007273 
 3500000     298.468499   -4600.690532   -5491.258111       0.000000       0.000000       0.000000   25051.084805  -31566.283677    1023.940761 
 3510000     294.411631   -4669.213385   -5547.676118       0.000000       0.000000       0.000000   24969.321982  -31563.416570    1046.418470 
 3520000     309.047981   -4630.945869   -5553.080410       0.000000       0.000000       0.000000   24909.478591  -31563.918963    1101.359962 
 3530000     294.635633   -4744.911702   -5624.042810       0.000000       0.000000       0.000000   24821.791569  -31563.009517    1117.175138 
 3540000     304.794461   -4600.347956   -5509.790882       0.000000       0.000000       0.000000   24946.078528  -31559.876005    1104.006595 
 3550000     287.753083   -4641.722014   -5500.317033       0.000000       0.000000       0.000000   24969.152892  -31560.294151    1090.824226 
 3560000     301.828844   -4599.272147   -5499.866294       0.000000       0.000000       0.000000   24965.842135  -31563.848244    1098.139816 
 3570000     300.680101   -4587.545340   -5484.711878       0.000000       0.000000       0.000000   24959.660728  -31560.614318    1116.241713 
 3580000     306.623755   -4561.811776   -5476.712935       0.000000       0.000000       0.000000   25037.149060  -31560.515437    1046.653442 
 3590000     287.632273   -4659.311958   -5517.546506       0.000000       0.000000       0.000000   25001.707108  -31561.191973    1041.938359 
 3600000     308.323261   -4674.716635   -5594.688762       0.000000       0.000000       0.000000   24882.034631  -31566.251914    1089.528522 
 3610000     300.975422   -4607.752148   -5505.799861       0.000000       0.000000       0.000000   24994.936995  -31566.531807    1065.794951 
 3620000     303.117007   -4624.414482   -5528.852238       0.000000       0.000000       0.000000   24875.664999  -31564.111812    1159.594576 
 3630000     311.065738   -4566.762746   -5494.917851       0.000000       0.000000       0.000000   25014.291051  -31564.119965    1054.911063 
 3640000     300.864009   -4566.513482   -5464.228763       0.000000       0.000000       0.000000   25032.131486  -31563.705105    1067.344856 
 3650000     294.396247   -4685.853619   -5564.270451       0.000000       0.000000       0.000000   24900.222446  -31564.065326    1099.572429 
 3660000     300.317277   -4630.730067   -5526.814012       0.000000       0.000000       0.000000   24913.431703  -31569.368394    1129.122679 
 3670000     305.188220   -4545.527219   -5456.145041       0.000000       0.000000       0.000000   25117.139895  -31563.816453     990.531516 
 3680000     296.306536   -4647.658524   -5531.775257       0.000000       0.000000       0.000000   24951.426794  -31560.135618    1076.933566 
 3690000     298.201869   -4660.975497   -5550.747509       0.000000       0.000000       0.000000   24923.671302  -31562.073734    1087.654924 
 3700000     293.241928   -4639.018012   -5513.990597       0.000000       0.000000       0.000000   24921.098573  -31564.382100    1129.292931 
 3710000     308.970868   -4625.957738   -5547.862190       0.000000       0.000000       0.000000   24918.591541  -31563.307331    1096.853600 
 3720000     309.001342   -4591.678486   -5513.673866       0.000000       0.000000       0.000000   24924.506635  -31562.323699    1124.143198 
 3730000     302.689959   -4594.341875   -5497.505407       0.000000       0.000000       0.000000   24952.132718  -31563.905437    1114.267312 
 3740000     303.680327   -4625.581392   -5531.699976       0.000000       0.000000       0.000000   24962.909315  -31565.563965    1070.954674 
 3750000     289.621672   -4632.711422   -5496.881920       0.000000       0.000000       0.000000   25025.957172  -31568.589065    1045.749973 
 3760000     292.628181   -4672.799803   -5545.941093       0.000000       0.000000       0.000000   24911.295247  -31557.766945    1100.530604 
 3770000     294.996695   -4710.158519   -5590.366961       0.000000       0.000000       0.000000   24864.558150  -31569.714755    1114.789644 
 3780000     309.011021   -4635.998452   -5558.022711       0.000000       0.000000       0.000000   24863.915022  -31561.977980    1140.040247 
 3790000     292.243861   -4654.768663   -5526.763223       0.000000       0.000000       0.000000   24993.089727  -31566.165717    1046.312767 
 3800000     299.566636   -4643.060462   -5536.904653       0.000000       0.000000       0.000000   24919.284857  -31568.644916    1112.455406 
 3810000     291.991640   -4682.600621   -5553.842608       0.000000       0.000000       0.000000   24867.331748  -31566.468972    1145.294616 
 3820000     303.788789   -4557.586427   -5464.028638       0.000000       0.000000       0.000000   25077.049516  -31563.432862    1022.354707 
 3830000     294.242140   -4668.348917   -5546.305925       0.000000       0.000000       0.000000   24861.007715  -31569.181094    1161.867454 
 3840000     306.113784   -4578.994252   -5492.373763       0.000000       0.000000       0.000000   24967.749225  -31564.692659    1104.569671 
 3850000     273.528753   -4735.782671   -5551.935262       0.000000       0.000000       0.000000   24914.242561  -31558.798240    1092.620417 
 3860000     306.773090   -4598.519654   -5513.866395       0.000000       0.000000       0.000000   25019.617786  -31561.948831    1028.464649 
 3870000     296.598481   -4588.182441   -5473.170277       0.000000       0.000000       0.000000   25000.522744  -31560.968431    1087.275409 
 3880000     308.467828   -4611.329789   -5531.733274       0.000000       0.000000       0.000000   24940.042521  -31559.649445    1087.873650 
 3890000     293.352591   -4624.013532   -5499.316310       0.000000       0.000000       0.000000   24992.802197  -31564.669387    1072.550880 
 3900000     294.292302   -4652.084252   -5530.190934       0.000000       0.000000       0.000000   24926.590236  -31564.669480    1107.888310 
 3910000     300.124632   -4580.610386   -5476.119519       0.000000       0.000000       0.000000   25008.070715  -31567.232333    1083.042100 
 3920000     307.348714   -4621.550105   -5538.614387       0.000000       0.000000       0.000000   24873.164621  -31557.922931    1146.143923 
 3930000     300.082746   -4605.074381   -5500.458537       0.000000       0.000000       0.000000   24959.978784  -31565.696729    1105.259408 
 3940000     303.347316   -4619.037618   -5524.162565       0.000000       0.000000       0.000000   24951.248827  -31565.323200    1089.911809 
 3950000     312.351715   -4631.778308   -5563.770499       0.000000       0.000000       0.000000   24924.592715  -31563.900151    1075.536937 
 3960000     298.865837   -4617.362079   -5509.115231       0.000000       0.000000       0.000000   24962.845475  -31564.710252    1092.749547 
 3970000     290.700673   -4674.251812   -5541.641824       0.000000       0.000000       0.000000   24926.652458  -31563.942420    1095.648139 
 3980000     302.094340   -4640.503956   -5541.890288       0.000000       0.000000       0.000000   24961.273844  -31567.161854    1063.997723 
 3990000     304.110592   -4567.031751   -5474.434157       0.000000       0.000000       0.000000   24987.110593  -31566.122662    1104.577911 
 4000000     313.269238   -4588.423957   -5523.153845       0.000000       0.000000       0.000000   24949.128484  -31563.498462    1091.216133 
 4010000     305.574929   -4613.140250   -5524.911929       0.000000       0.000000       0.000000   24936.915666  -31565.715357    1103.887762 
 4020000     306.654046   -4638.822399   -5553.813940       0.000000       0.000000       0.000000   24964.663708  -31564.567866    1046.090218 
 4030000     288.008037   -4660.512677   -5519.868426       0.000000       0.000000       0.000000   24854.346731  -31563.803090    1189.587932 
 4040000     301.548795   -4638.255156   -5538.013695       0.000000       0.000000       0.000000   24953.374957  -31566.656409    1075.267757 
 4050000     314.322652   -4565.539106   -5503.412161       0.000000       0.000000       0.000000   25056.564539  -31562.758586    1002.781886 
 4060000     312.923522   -4626.039911   -5559.738255       0.000000       0.000000       0.000000   24876.428645  -31564.245831    1128.078931 
 4070000     303.162602   -4657.557763   -5562.131564       0.000000       0.000000       0.000000   24836.191462  -31569.459474    1171.136448 
 4080000     303.066994   -4663.794495   -5568.083020       0.000000       0.000000       0.000000   24864.531824  -31565.902657    1133.287813 
 4090000     308.821272   -4565.286911   -5486.744999       0.000000       0.000000       0.000000   24966.926674  -31565.477808    1111.806136 
 4100000     300.057067   -4616.414359   -5511.721892       0.000000       0.000000       0.000000   24935.273587  -31566.379386    1119.383907 
 4110000     301.026904   -4592.694652   -5490.895976       0.000000       0.000000       0.000000   24944.257508  -31558.180515    1123.027031 
 4120000     300.758123   -4635.613648   -5533.012988       0.000000       0.000000       0.000000   24956.817221  -31565.025578    1075.195370 
 4130000     299.457053   -4708.735400   -5602.252618       0.000000       0.000000       0.000000   24855.219527  -31564.363751    1106.891606 
 4140000     305.120093   -4599.245587   -5509.660131       0.000000       0.000000       0.000000   24905.150819  -31563.992279    1149.181329 
 4150000     296.862233   -4628.432489   -5514.207306       0.000000       0.000000       0.000000   24983.732266  -31563.859566    1065.919995 
 4160000     301.583269   -4606.793248   -5506.654649       0.000000       0.000000       0.000000   24962.601813  -31567.394203    1098.137741 
 4170000     295.760636   -4610.522281   -5493.010162       0.000000       0.000000       0.000000   24900.666120  -31564.977089    1171.300806 
 4180000     292.263979   -4739.309251   -5611.363840       0.000000       0.000000       0.000000   24864.964563  -31565.789002    1089.460599 
 4190000     310.200464   -4634.849321   -5560.422631       0.000000       0.000000       0.000000   24887.585410  -31562.914411    1114.906370 
 4200000     294.395542   -4668.609975   -5547.024703       0.000000       0.000000       0.000000   24949.950129  -31565.166459    1068.191627 
 4210000     301.103167   -4599.852727   -5498.281606       0.000000       0.000000       0.000000   24989.767297  -31566.455009    1078.406106 
 4220000     311.063556   -4607.600833   -5535.749430       0.000000       0.000000       0.000000   24867.076394  -31561.408358    1158.582534 
 4230000     296.011806   -4717.811175   -5601.048495       0.000000       0.000000       0.000000   24844.207938  -31566.870155    1121.613722 
 4240000     307.690166   -4652.669998   -5570.753104       0.000000       0.000000       0.000000   24922.741001  -31565.845728    1072.351623 
 4250000     299.019234   -4628.504695   -5520.715552       0.000000       0.000000       0.000000   24960.413902  -31565.238072    1084.108618 
 4260000     299.791173   -4645.544458   -5540.058621       0.000000       0.000000       0.000000   24919.004114  -31566.576665    1107.513930 
 4270000     301.293943   -4603.143563   -5502.141678       0.000000       0.000000       0.000000   24933.623155  -31564.274798    1128.509965 
 4280000     312.636263   -4613.610353   -5546.451576       0.000000       0.000000       0.000000   24882.599812  -31564.328269    1135.276881 
 4290000     299.340873   -4636.103657   -5529.274219       0.000000       0.000000       0.000000   24958.096008  -31564.538756    1077.168530 
 4300000     298.602447   -4665.516244   -5556.483494       0.000000       0.000000       0.000000   24936.853725  -31567.049442    1073.712223 
 4310000     313.464689   -4564.740647   -5500.053721       0.000000       0.000000       0.000000   24973.851727  -31565.284233    1091.378785 
 4320000     299.760020   -4649.508670   -5543.929877       0.000000       0.000000       0.000000   24966.163084  -31564.544893    1054.451933 
 4330000     310.840775   -4563.793904   -5491.277768       0.000000       0.000000       0.000000   24955.845166  -31562.169617    1115.046683 
 4340000     304.061744   -4686.151730   -5593.408382       0.000000       0.000000       0.000000   24824.959490  -31567.073014    1148.705142 
 4350000     298.506455   -4608.050314   -5498.731148       0.000000       0.000000       0.000000   24994.527948  -31560.207678    1066.948583 
 4360000     292.404880   -4625.358295   -5497.833304       0.000000       0.000000       0.000000   25107.382818  -31563.196138     957.980016 
 4370000     295.707383   -4638.986412   -5521.315398       0.000000       0.000000       0.000000   24994.075071  -31565.133709    1049.743240 
 4380000     305.354298   -4559.384166   -5470.497529       0.000000       0.000000       0.000000   25083.320895  -31566.050191    1012.231767 
 4390000     296.617458   -4679.449471   -5564.493933       0.000000       0.000000       0.000000   24955.874793  -31565.683182    1045.314457 
 4400000     307.751632   -4606.842250   -5525.108756       0.000000       0.000000       0.000000   24959.623278  -31560.666949    1075.934915 
 4410000     294.995503   -4705.838898   -5586.043783       0.000000       0.000000       0.000000   24889.637942  -31568.369010    1092.687284 
 4420000     295.723134   -4625.196331   -5507.572315       0.000000       0.000000       0.000000   25013.262541  -31566.081780    1045.246924 
 4430000     303.653169   -4603.113306   -5509.150856       0.000000       0.000000       0.000000   24961.185166  -31565.193851    1094.857829 
 4440000     296.795282   -4657.628986   -5543.204036       0.000000       0.000000       0.000000   24910.458544  -31564.886550    1111.223970 
 4450000     292.433296   -4577.843077   -5450.402872       0.000000       0.000000       0.000000   25002.841497  -31565.436110    1112.191741 
 4460000     302.419618   -4653.088174   -5555.445066       0.000000       0.000000       0.000000   24931.068762  -31566.597197    1080.083369 
 4470000     296.887210   -4586.453740   -5472.303082       0.000000       0.000000       0.000000   25050.389717  -31561.123217    1038.430418 
 4480000     307.405346   -4558.993514   -5476.226774       0.000000       0.000000       0.000000   25036.741747  -31563.654712    1050.686191 
 4490000     287.237697   -4704.585625   -5561.642840       0.000000       0.000000       0.000000   24886.355422  -31559.462444    1111.464182 
 4500000     306.827988   -4619.218730   -5534.729276       0.000000       0.000000       0.000000   24938.863682  -31564.354985    1090.762027 
 4510000     313.187269   -4580.560359   -5515.045668       0.000000       0.000000       0.000000   24971.010103  -31561.606041    1075.550269 
 4520000     310.161707   -4615.893661   -5541.351328       0.000000       0.000000       0.000000   24941.168572  -31567.162352    1084.642452 
 4530000     307.423051   -4616.857202   -5534.143291       0.000000       0.000000       0.000000   24979.503621  -31566.835000    1053.188088 
 4540000     308.819048   -4549.027376   -5470.478830       0.000000       0.000000       0.000000   25031.727214  -31565.160339    1062.954295 
 4550000     309.185498   -4551.333847   -5473.878709       0.000000       0.000000       0.000000   25012.645357  -31563.664880    1077.140814 
 4560000     297.661114   -4647.094954   -5535.253465       0.000000       0.000000       0.000000   25028.646511  -31567.318919    1003.418943 
 4570000     298.337371   -4670.529364   -5560.705685       0.000000       0.000000       0.000000   24883.828298  -31561.830253    1117.296270 
 4580000     299.123328   -4642.924135   -5535.445588       0.000000       0.000000       0.000000   24912.350855  -31564.605083    1116.808640 
 4590000     291.614844   -4661.564651   -5531.682355       0.000000       0.000000       0.000000   24934.699651  -31562.293881    1095.911875 
 4600000     301.197296   -4623.720499   -5522.430239       0.000000       0.000000       0.000000   24980.068130  -31564.688605    1062.190236 
 4610000     312.584606   -4594.289810   -5526.976902       0.000000       0.000000       0.000000   24965.016923  -31562.987412    1070.993587 
 4620000     312.359475   -4523.918054   -5455.933400       0.000000       0.000000       0.000000   25061.279973  -31563.727279    1046.513906 
 4630000     297.639531   -4587.407491   -5475.501603       0.000000       0.000000       0.000000   24999.645820  -31565.353564    1090.206141 
 4640000     310.057167   -4641.553082   -5566.698822       0.000000       0.000000       0.000000   24820.960818  -31568.757686    1181.098046 
 4650000     311.857984   -4606.061943   -5536.580947       0.000000       0.000000       0.000000   24952.853075  -31564.984588    1075.550566 
 4660000     300.447512   -4660.033137   -5556.505676       0.000000       0.000000       0.000000   24910.010518  -31563.762749    1097.246554 
 4670000     298.537559   -4635.806446   -5526.580086       0.000000       0.000000       0.000000   24926.850365  -31561.691960    1108.261510 
 4680000     296.246114   -4633.012162   -5516.948608       0.000000       0.000000       0.000000   24993.890990  -31567.518584    1056.678986 
 4690000     304.561558   -4615.149712   -5523.897705       0.000000       0.000000       0.000000   24962.418778  -31568.506175    1082.189693 
 4700000     294.366087   -4679.128990   -5557.455829       0.000000       0.000000       0.000000   24875.016442  -31559.898507    1127.426236 
 4710000     301.795894   -4630.837088   -5531.332918       0.000000       0.000000       0.000000   24899.365199  -31556.541047    1125.842930 
 4720000     298.428648   -4672.564660   -5563.013332       0.000000       0.000000       0.000000   24856.198948  -31566.302098    1147.089819 
 4730000     319.795392   -4608.877031   -5563.079599       0.000000       0.000000       0.000000   24854.313998  -31568.854491    1151.460894 
 4740000     285.213344   -4695.333849   -5546.350818       0.000000       0.000000       0.000000   24823.432576  -31560.222157    1190.438764 
 4750000     306.422449   -4619.813372   -5534.113873       0.000000       0.000000       0.000000   24920.478978  -31567.705478    1113.112627 
 4760000     310.691494   -4616.202163   -5543.240602       0.000000       0.000000       0.000000   24873.114983  -31565.703701    1149.348116 
 4770000     306.376485   -4611.800094   -5525.963450       0.000000       0.000000       0.000000   24932.910880  -31563.286484    1104.412155 
 4780000     282.844084   -4713.347802   -5557.295394       0.000000       0.000000       0.000000   24962.713838  -31567.456996    1047.447764 
 4790000     304.715096   -4585.602039   -5494.808158       0.000000       0.000000       0.000000   24969.192346  -31567.066621    1103.066118 
 4800000     292.536940   -4668.496675   -5541.365722       0.000000       0.000000       0.000000   24909.926280  -31568.131676    1116.839675 
 4810000     305.220297   -4628.599028   -5539.312560       0.000000       0.000000       0.000000   24957.352808  -31565.794284    1069.128917 
 4820000     303.016018   -4647.574236   -5551.710661       0.000000       0.000000       0.000000   24951.686439  -31569.128471    1065.731372 
 4830000     315.095786   -4577.161312   -5517.341238       0.000000       0.000000       0.000000   24945.151359  -31568.906883    1106.414285 
 4840000     292.903447   -4626.189462   -5500.152089       0.000000       0.000000       0.000000   25001.392451  -31566.160077    1064.615537 
 4850000     311.551764   -4563.470983   -5493.076288       0.000000       0.000000       0.000000   25039.796792  -31564.237331    1031.364251 
 4860000     283.992082   -4662.945224   -5510.318204       0.000000       0.000000       0.000000   25031.718743  -31566.100082    1024.063135 
 4870000     306.829912   -4543.539973   -5459.056260       0.000000       0.000000       0.000000   25084.157465  -31563.335199    1020.121475 
 4880000     290.466052   -4644.791712   -5511.481664       0.000000       0.000000       0.000000   25002.398692  -31566.967776    1053.087420 
 4890000     285.959062   -4661.325182   -5514.567218       0.000000       0.000000       0.000000   24923.692278  -31566.020329    1127.760833 
 4900000     295.618982   -4643.160880   -5525.226096       0.000000       0.000000       0.000000   25041.958043  -31563.453012     996.268873 
 4910000     295.644167   -4688.144935   -5570.285298       0.000000       0.000000       0.000000   24894.239174  -31560.929026    1096.404554 
 4920000     308.202550   -4585.467066   -5505.079016       0.000000       0.000000       0.000000   24975.600888  -31564.153153    1083.473248 
 4930000     322.566237   -4515.784756   -5478.254946       0.000000       0.000000       0.000000   25079.909532  -31564.836344    1006.671867 
 4940000     288.914344   -4617.667840   -5479.727821       0.000000       0.000000       0.000000   24987.720397  -31561.022554    1093.574336 
 4950000     301.469305   -4612.403358   -5511.924714       0.000000       0.000000       0.000000   25022.864841  -31558.250335    1023.460779 
 4960000     306.093682   -4566.177233   -5479.496764       0.000000       0.000000       0.000000   25010.690639  -31562.241120    1072.053717 
 4970000     305.075107   -4625.447840   -5535.728157       0.000000       0.000000       0.000000   24941.667405  -31567.750133    1090.354571 
 4980000     296.746688   -4657.890542   -5543.320598       0.000000       0.000000       0.000000   24905.233122  -31562.128902    1113.575181 
 4990000     300.994991   -4649.544494   -5547.650595       0.000000       0.000000       0.000000   24953.804244  -31561.974680    1060.519841 
 5000000     297.641526   -4611.489175   -5499.589239       0.000000       0.000000       0.000000   25034.467657  -31565.787768    1031.730872 
Loop time of 9784.69 on 8 procs for 5000000 steps with 1503 atoms

Performance: 44.151 ns/day, 0.544 hours/ns, 511.002 timesteps/s
99.2% CPU use with 8 MPI tasks x 1 OpenMP threads

MPI task timing breakdown:
Section |  min time  |  avg time  |  max time  |%varavg| %total
---------------------------------------------------------------
Pair    | 4877.7     | 4889.9     | 4905.7     |  11.7 | 49.97
Bond    | 1.4357     | 1.5974     | 1.8997     |  10.3 |  0.02
Kspace  | 2618.3     | 2635.7     | 2646       |  16.8 | 26.94
Neigh   | 352.01     | 352.24     | 352.46     |   0.8 |  3.60
Comm    | 448.9      | 467.47     | 485.36     |  43.0 |  4.78
Output  | 2.0188     | 2.5407     | 2.7869     |  14.0 |  0.03
Modify  | 1333       | 1387.3     | 1426.6     |  66.4 | 14.18
Other   |            | 47.97      |            |       |  0.49

Nlocal:    187.875 ave 206 max 175 min
Histogram: 1 0 1 2 3 0 0 0 0 1
Nghost:    4603.88 ave 4669 max 4581 min
Histogram: 4 0 1 2 0 0 0 0 0 1
Neighs:    67530.8 ave 74269 max 63089 min
Histogram: 1 0 1 4 1 0 0 0 0 1

Total # of neighbors = 540246
Ave neighs/atom = 359.445
Ave special neighs/atom = 2
Neighbor list builds = 216934
Dangerous builds = 0
Total wall time: 3:15:49
