#LAMMPS data file generated on 2023-07-04 via gen_data.py, version 1 May 2020

2000 atoms
12 atom types
1900 bonds
17 bond types

0.0000000000000000e+00   1.9809155597618289e+02    xlo xhi
0.0000000000000000e+00   1.9809155597618289e+02    ylo yhi
0.0000000000000000e+00   1.9809155597618289e+02    zlo zhi

Masses

1  129.08250  # E
2  128.08260  # Q
3  147.18000  # F
4  87.06820  # S
5  115.08440  # D
6  114.08450  # N
7  113.18460  # L
8  101.08630  # T
9  57.04220  # G
10 156.17880  # R
11 163.17780  # Y
12 99.05650  # V

Atoms

1             1    1 -1.00000   67.3961001570  137.5663573059  100.4944998699 0 0 0
2             1    2  0.00000   63.6508980800  134.8304939240   97.5384022805 0 0 0
3             1    1 -1.00000   63.6091619938  129.9387035800   95.0261645669 0 0 0
4             1    3  0.00000   64.3124331609  127.8694491135   89.9792421762 0 0 0
5             1    4  0.00000   60.6766331066  127.8464833592   85.8529024496 0 0 0
6             1    5 -1.00000   57.8083843048  124.0008838077   83.1626009979 0 0 0
7             1    6  0.00000   54.2480726297  119.8930102618   83.9975421381 0 0 0
8             1    1 -1.00000   53.7785514481  115.1428798512   81.2654467990 0 0 0
9             1    7  0.00000   48.9190772292  112.5698997525   81.3936681993 0 0 0
10            1    2  0.00000   49.8671528313  109.8100398971   76.7315639285 0 0 0
11            1    1 -1.00000   50.6907992788  107.5095283140   71.8038385927 0 0 0
12            1    7  0.00000   51.9982251270  105.5193677085   66.8467064161 0 0 0
13            1    4  0.00000   49.6109654153  100.5992703170   66.2624849456 0 0 0
14            1    8  0.00000   46.3579697847   96.8890595364   63.8320021970 0 0 0
15            1    2  0.00000   45.0021485496   95.0759312994   58.8199199177 0 0 0
16            1    9  0.00000   40.2215013624   92.6071883725   57.6763964886 0 0 0
17            1    4  0.00000   35.0247092098   91.5508780673   56.2199010848 0 0 0
18            1   10  1.00000   35.4266360934   86.8468359537   53.3997368034 0 0 0
19            1   11  0.00000   35.3261647587   84.9003013711   48.2565500841 0 0 0
20            1   12  0.00000   31.4367759835   83.9706175048   44.4794538629 0 0 0
21            2    1 -1.00000  136.9566797841   52.0645836466  126.2426123948 0 0 0
22            2    2  0.00000  139.2010131700   51.2015498690  131.1891405057 0 0 0
23            2    1 -1.00000  139.3960892447   54.1171935373  135.8478592485 0 0 0
24            2    3  0.00000  142.8599793698   57.4740326002  138.4900035872 0 0 0
25            2    4  0.00000  147.2489766141   56.0470752525  141.4811145709 0 0 0
26            2    5 -1.00000  148.6160153742   56.2608524208  146.8045263858 0 0 0
27            2    6  0.00000  146.8930093331   54.6574100356  151.7752198686 0 0 0
28            2    1 -1.00000  147.4293686379   57.2447717780  156.5987467847 0 0 0
29            2    7  0.00000  147.2377421901   54.2102665253  161.1820004517 0 0 0
30            2    2  0.00000  150.0229141572   57.9035677500  164.1574387685 0 0 0
31            2    1 -1.00000  153.2602308617   61.4086302015  166.8937760589 0 0 0
32            2    7  0.00000  156.5539518745   65.2001296141  169.1341320782 0 0 0
33            2    4  0.00000  155.5094369905   65.4433226685  174.5283445133 0 0 0
34            2    8  0.00000  156.7814875933   65.1834159919  179.8733633892 0 0 0
35            2    2  0.00000  160.7425196053   66.7146458746  183.3679612840 0 0 0
36            2    9  0.00000  161.7045991361   64.1900774904  188.1593997371 0 0 0
37            2    4  0.00000  163.6176254301   60.8659936341  192.1007974479 0 0 0
38            2   10  1.00000  164.0729075167   64.1912673423  196.4571901056 0 0 0
39            2   11  0.00000  167.8376364652   66.8683200630  199.4424314149 0 0 0
40            2   12  0.00000  171.5913277783   65.4658385756  203.2108475548 0 0 0
41            3    1 -1.00000  200.5199124436  209.0674042921  -14.9417059085 0 0 0
42            3    2  0.00000  198.5639982405  204.6771513497  -12.2677427951 0 0 0
43            3    1 -1.00000  193.7564351221  203.5045315223   -9.8687862296 0 0 0
44            3    3  0.00000  191.5397066846  203.4698469810   -4.8356220144 0 0 0
45            3    4  0.00000  192.2080299414  199.6574916446   -0.9285080138 0 0 0
46            3    5 -1.00000  188.9914271136  195.9191539376    1.5069604086 0 0 0
47            3    6  0.00000  185.6908058681  191.6671872722    0.3781336414 0 0 0
48            3    1 -1.00000  181.1058402054  190.0911209843    2.9747928275 0 0 0
49            3    7  0.00000  179.5629653868  184.8324151761    2.5092742819 0 0 0
50            3    2  0.00000  176.6242584494  184.9225608259    7.1575820705 0 0 0
51            3    1 -1.00000  174.1579597524  184.9666369592   12.0737443982 0 0 0
52            3    7  0.00000  171.8981935823  185.5440579832   17.0540358372 0 0 0
53            3    4  0.00000  167.5526457605  182.1900102869   17.3920597697 0 0 0
54            3    8  0.00000  164.5484576705  178.1183926670   19.5488339530 0 0 0
55            3    2  0.00000  162.9966373094  176.1234817738   24.4333849144 0 0 0
56            3    9  0.00000  161.5278186967  170.8849327343   25.2440024835 0 0 0
57            3    4  0.00000  161.5231674862  165.5027328261   26.3734809093 0 0 0
58            3   10  1.00000  156.8074243353  164.7826799802   29.1095683410 0 0 0
59            3   11  0.00000  154.8714590172  163.9806735773   34.1948692187 0 0 0
60            3   12  0.00000  154.7058955021  159.7603831556   37.7190500425 0 0 0
61            4    1 -1.00000   35.6896419987   48.3719470746  158.9961591756 0 0 0
62            4    2  0.00000   31.5602540803   46.4164985808  155.9343987983 0 0 0
63            4    1 -1.00000   30.3230080798   41.4476350877  153.9288288242 0 0 0
64            4    3  0.00000   30.7951833914   38.6484149752  149.2182824401 0 0 0
65            4    4  0.00000   27.6316402913   39.1032203489  144.7426376680 0 0 0
66            4    5 -1.00000   24.0043710835   35.8829506986  142.1491862084 0 0 0
67            4    6  0.00000   19.3699052648   33.0444213897  142.9930161307 0 0 0
68            4    1 -1.00000   17.7810385854   28.3000827194  140.7093157878 0 0 0
69            4    7  0.00000   12.3957679255   27.1919736194  140.5606176294 0 0 0
70            4    2  0.00000   12.8759467449   23.7155083474  136.3257023394 0 0 0
71            4    1 -1.00000   13.3882422715   20.6777865300  131.7690562643 0 0 0
72            4    7  0.00000   14.4533515339   17.7999794445  127.2053922059 0 0 0
73            4    4  0.00000   10.8182071046   13.6878275674  126.8538044965 0 0 0
74            4    8  0.00000    6.8417525336   10.7345409387  124.4619854954 0 0 0
75            4    2  0.00000    5.4162975798    8.7472662176  119.5359859666 0 0 0
76            4    9  0.00000    0.2338521001    7.5573549262  118.1276909093 0 0 0
77            4    4  0.00000   -4.9206593436    7.7889338840  116.2247453077 0 0 0
78            4   10  1.00000   -5.6568510652    2.8390812303  113.9444241777 0 0 0
79            4   11  0.00000   -5.9104735101    0.3646926865  109.0388622333 0 0 0
80            4   12  0.00000   -9.6010012481    0.0680469719  104.9706784451 0 0 0
81            5    1 -1.00000   69.9598936094  127.3583239709  194.6877270904 0 0 0
82            5    2  0.00000   72.0914276699  122.4251867713  193.5169496057 0 0 0
83            5    1 -1.00000   77.1188088516  120.6749604660  192.1367904359 0 0 0
84            5    3  0.00000   79.9370926372  119.3291428965  187.6097735844 0 0 0
85            5    4  0.00000   79.6359924255  114.6262849169  184.7745109004 0 0 0
86            5    5 -1.00000   83.0090768889  110.3871232413  183.8231863024 0 0 0
87            5    6  0.00000   86.0097880291  106.5846812184  186.4279393263 0 0 0
88            5    1 -1.00000   90.8280602572  104.3929230422  184.9349614857 0 0 0
89            5    7  0.00000   92.1354210629   99.4419811177  186.9424820420 0 0 0
90            5    2  0.00000   95.6262828335   98.3186741382  182.8433412139 0 0 0
91            5    1 -1.00000   98.6801586525   97.0799492641  178.4396351419 0 0 0
92            5    7  0.00000  101.5538811002   96.3388365678  173.8097612489 0 0 0
93            5    4  0.00000  105.8001780905   93.0213375617  174.9101449163 0 0 0
94            5    8  0.00000  108.9177147946   88.5329971750  174.2851197401 0 0 0
95            5    2  0.00000  110.9964569860   85.3328220901  170.3247707242 0 0 0
96            5    9  0.00000  112.3883675675   80.0673986038  171.0960199985 0 0 0
97            5    4  0.00000  112.3628159790   74.5771631258  171.4130066117 0 0 0
98            5   10  1.00000  117.3549460683   73.1753909999  169.5809159810 0 0 0
99            5   11  0.00000  119.8770215555   71.0748010586  165.1675138766 0 0 0
100           5   12  0.00000  120.3429615678   66.0799454260  162.9108725417 0 0 0
101           6    1 -1.00000  169.1521394749  166.2796846434   55.6138498758 0 0 0
102           6    2  0.00000  170.9538209703  162.5630036255   59.2456849493 0 0 0
103           6    1 -1.00000  169.2948000939  157.5201193525   60.6808368368 0 0 0
104           6    3  0.00000  166.3205799901  155.1059972924   64.6272097858 0 0 0
105           6    4  0.00000  167.9211758946  153.9310010897   69.7559255777 0 0 0
106           6    5 -1.00000  168.8861862538  149.3332502317   72.6164589290 0 0 0
107           6    6  0.00000  171.8746313499  144.7177879869   72.4969801710 0 0 0
108           6    1 -1.00000  170.5319437201  139.7055507213   74.3199452070 0 0 0
109           6    7  0.00000  174.6174694302  136.2557801223   75.6078580480 0 0 0
110           6    2  0.00000  171.4836094356  133.2574652823   78.9901530758 0 0 0
111           6    1 -1.00000  168.4173250441  130.6542441500   82.7417345778 0 0 0
112           6    7  0.00000  164.9450093041  128.4455263593   86.3897271934 0 0 0
113           6    4  0.00000  166.1846943288  123.1184421965   86.9668210867 0 0 0
114           6    8  0.00000  167.6215246369  118.6045774095   89.7624309218 0 0 0
115           6    2  0.00000  166.5561099429  116.0389639365   94.5089215240 0 0 0
116           6    9  0.00000  170.0672627885  112.5713719399   96.9388467163 0 0 0
117           6    4  0.00000  174.0215113022  110.3654905469  100.0600363888 0 0 0
118           6   10  1.00000  171.8624342614  105.5601695633  101.6380606525 0 0 0
119           6   11  0.00000  169.5917177661  103.0974280870  106.0004237758 0 0 0
120           6   12  0.00000  171.4384457154  101.0258248800  110.7497573115 0 0 0
121           7    1 -1.00000  122.5349530897  187.1395475376  144.0152162970 0 0 0
122           7    2  0.00000  117.7831283192  185.7920024931  141.5956535878 0 0 0
123           7    1 -1.00000  112.7846279011  188.0816263460  141.4719233067 0 0 0
124           7    3  0.00000  107.9073998446  187.5137562737  143.9494220585 0 0 0
125           7    4  0.00000  104.0669395009  183.7163968853  142.9115516312 0 0 0
126           7    5 -1.00000   98.9890113347  183.7367961791  140.7979200627 0 0 0
127           7    6  0.00000   96.1749740112  185.2773060959  136.3307515928 0 0 0
128           7    1 -1.00000   91.0122709742  187.1433642593  135.9948077242 0 0 0
129           7    7  0.00000   88.3816550547  186.5862341760  131.1968265910 0 0 0
130           7    2  0.00000   83.3961535963  186.8217734087  133.5077109406 0 0 0
131           7    1 -1.00000   78.4840324065  186.5377960128  135.9660937944 0 0 0
132           7    7  0.00000   73.8564672685  186.2624465647  138.9246550283 0 0 0
133           7    4  0.00000   69.7373804582  188.3032136538  135.9053710837 0 0 0
134           7    8  0.00000   64.8524111929  188.1553668086  133.3814638771 0 0 0
135           7    2  0.00000   59.7124319778  186.3760340533  134.1946321341 0 0 0
136           7    9  0.00000   56.2337075722  185.1769710961  130.1059098967 0 0 0
137           7    4  0.00000   53.3426341955  182.6039512738  126.1988543910 0 0 0
138           7   10  1.00000   48.3367579250  184.8368687056  126.6440133597 0 0 0
139           7   11  0.00000   43.2910423460  183.7273507638  128.5311236461 0 0 0
140           7   12  0.00000   39.0675183224  180.6187190045  126.8708928168 0 0 0
141           8    1 -1.00000  101.0778737038   65.2188287180  135.5820652404 0 0 0
142           8    2  0.00000  103.7264022064   65.6554974697  140.3825461717 0 0 0
143           8    1 -1.00000  108.9876094282   66.4440864430  141.7755712973 0 0 0
144           8    3  0.00000  113.3334358166   63.4828352175  143.3857309729 0 0 0
145           8    4  0.00000  114.3228145106   61.4828445342  148.4124014481 0 0 0
146           8    5 -1.00000  118.0103328189   62.4581215743  152.3752605701 0 0 0
147           8    6  0.00000  120.0244936707   66.5111341254  155.4999711685 0 0 0
148           8    1 -1.00000  125.1542788208   67.1888286093  157.3639906160 0 0 0
149           8    7  0.00000  125.8705764918   70.2636021581  161.8677492985 0 0 0
150           8    2  0.00000  130.6731584295   67.9024114822  163.1369519313 0 0 0
151           8    1 -1.00000  135.1873275658   65.1224003598  164.6022297783 0 0 0
152           8    7  0.00000  139.5931821566   61.9934827777  165.6228085792 0 0 0
153           8    4  0.00000  143.2934576768   65.0298303617  168.3313573462 0 0 0
154           8    8  0.00000  146.6358013763   66.2528949942  172.5251316010 0 0 0
155           8    2  0.00000  150.1762517820   63.8342997813  175.9692950874 0 0 0
156           8    9  0.00000  151.4404508912   65.8480045548  180.9295086612 0 0 0
157           8    4  0.00000  151.5658361358   66.9721002702  186.3113769579 0 0 0
158           8   10  1.00000  156.9434686040   67.2782247159  187.4205391914 0 0 0
159           8   11  0.00000  161.0089421307   64.4316992587  189.7913362780 0 0 0
160           8   12  0.00000  162.5123238940   63.2831994911  194.9564988657 0 0 0
161           9    1 -1.00000   11.5206919337  -21.1378519942   69.0854932991 0 0 0
162           9    2  0.00000   12.6799095650  -16.0758093422   70.8971054742 0 0 0
163           9    1 -1.00000   13.7820876510  -11.2963728770   68.4101628649 0 0 0
164           9    3  0.00000   18.1538028976   -8.2581913624   67.0298046190 0 0 0
165           9    4  0.00000   21.1223647134   -5.0046969036   70.3235355662 0 0 0
166           9    5 -1.00000   21.9658641929    0.4116276274   70.7764662485 0 0 0
167           9    6  0.00000   19.2741191491    5.1642175502   71.4206468480 0 0 0
168           9    1 -1.00000   20.5134918491   10.1199106809   69.3826098254 0 0 0
169           9    7  0.00000   18.5547634575   14.5424997144   72.0008623589 0 0 0
170           9    2  0.00000   22.4511231254   17.8752798166   70.0104231790 0 0 0
171           9    1 -1.00000   26.6820848287   20.9963236482   68.3944799665 0 0 0
172           9    7  0.00000   31.1373531156   23.6397110093   66.5488503311 0 0 0
173           9    4  0.00000   29.8547669109   28.9441566476   65.8665665943 0 0 0
174           9    8  0.00000   30.3953880157   34.3546931198   66.6964550839 0 0 0
175           9    2  0.00000   34.2964414123   38.2025596912   67.1680049165 0 0 0
176           9    9  0.00000   33.5737763379   42.9420197545   69.8647063274 0 0 0
177           9    4  0.00000   33.4002187887   46.8732048899   73.7065132210 0 0 0
178           9   10  1.00000   34.9465531614   51.3886460483   70.9747509414 0 0 0
179           9   11  0.00000   39.2431495064   54.7627145667   70.3372695838 0 0 0
180           9   12  0.00000   41.5931773839   58.7432105029   73.3190700595 0 0 0
181          10    1 -1.00000   23.9792552452   97.0496378459   85.4679338801 0 0 0
182          10    2  0.00000   20.9689172279  101.1751102867   87.5095857019 0 0 0
183          10    1 -1.00000   20.4890237983  103.4379187958   92.4987833275 0 0 0
184          10    3  0.00000   17.1396047141  103.1887266933   96.8539096282 0 0 0
185          10    4  0.00000   12.2278606613  105.5972066138   97.4198105315 0 0 0
186          10    5 -1.00000   10.1619230790  109.6258736194  100.5431025551 0 0 0
187          10    6  0.00000   10.9501223907  114.9069838695  101.8607471851 0 0 0
188          10    1 -1.00000   10.0703816460  117.4165780392  106.6749477756 0 0 0
189          10    7  0.00000    9.2286374091  122.8516859323  106.6277690638 0 0 0
190          10    2  0.00000    6.5411901866  122.8259990317  111.4265040648 0 0 0
191          10    1 -1.00000    3.4196999428  122.6182351572  115.9504798417 0 0 0
192          10    7  0.00000    0.3489755209  121.8379258544  120.4454803886 0 0 0
193          10    4  0.00000    0.6446860354  126.3605819699  123.5608967256 0 0 0
194          10    8  0.00000   -1.3909106208  130.6766165601  126.2964191016 0 0 0
195          10    2  0.00000   -5.5794679306  132.0089413490  129.6021039504 0 0 0
196          10    9  0.00000   -7.5189322220  137.1292057815  130.1296410617 0 0 0
197          10    4  0.00000  -10.3733409455  141.7942186362  129.5518652367 0 0 0
198          10   10  1.00000  -11.0143161486  143.5408745601  134.7269234849 0 0 0
199          10   11  0.00000  -14.7934467598  143.8801428185  138.7086981988 0 0 0
200          10   12  0.00000  -19.1878964621  147.0366434431  139.7003778957 0 0 0
201          11    1 -1.00000   79.0788328424  182.8206875417   75.7520530522 0 0 0
202          11    2  0.00000   75.7451913462  178.4861742524   75.1614356468 0 0 0
203          11    1 -1.00000   76.5828157441  173.1335731871   74.2176453075 0 0 0
204          11    3  0.00000   76.5230519759  169.6150831460   69.9910052564 0 0 0
205          11    4  0.00000   72.1149763960  167.3615568332   67.5958564427 0 0 0
206          11    5 -1.00000   70.0021042310  162.2969083140   67.2239484019 0 0 0
207          11    6  0.00000   68.2894334554  158.0916203278   70.3271536429 0 0 0
208          11    1 -1.00000   68.6339922658  152.6992409867   69.3014547259 0 0 0
209          11    7  0.00000   65.0633568130  149.3656213189   71.8290423848 0 0 0
210          11    2  0.00000   65.5484654042  145.4061822131   68.0424341898 0 0 0
211          11    1 -1.00000   65.7034938379  141.7448005356   63.9407912998 0 0 0
212          11    7  0.00000   66.1923478817  138.4587849852   59.5582823693 0 0 0
213          11    4  0.00000   65.4230549074  133.2620406385   61.1860779691 0 0 0
214          11    8  0.00000   62.9870606784  128.3305697778   61.1484181041 0 0 0
215          11    2  0.00000   60.9824265768  124.6190656182   57.6195609247 0 0 0
216          11    9  0.00000   57.1089653990  120.9477998271   58.9518638160 0 0 0
217          11    4  0.00000   52.3253190047  118.3638905351   59.7788819208 0 0 0
218          11   10  1.00000   53.4243392206  113.1680111327   58.3513400475 0 0 0
219          11   11  0.00000   52.5687092289  109.5560761581   54.2926106827 0 0 0
220          11   12  0.00000   48.3110737951  106.5460019815   52.5404386122 0 0 0
221          12    1 -1.00000  108.5768270006   53.7959325485  124.7008347958 0 0 0
222          12    2  0.00000  110.3864466498   54.3172788610  119.5332943027 0 0 0
223          12    1 -1.00000  108.2173014233   56.3931039539  114.9258598572 0 0 0
224          12    3  0.00000  105.6728935801   54.6216761696  110.3831885799 0 0 0
225          12    4  0.00000  107.9836689661   52.3240578795  105.9528932953 0 0 0
226          12    5 -1.00000  108.6946102504   53.7704854977  100.6940323316 0 0 0
227          12    6  0.00000  110.8088751809   57.7647656970   97.5598369814 0 0 0
228          12    1 -1.00000  109.0232955793   59.6330741773   92.7049772606 0 0 0
229          12    7  0.00000  112.6535187492   62.1368123072   89.4180437180 0 0 0
230          12    2  0.00000  109.7536025437   61.1125582087   84.8581885073 0 0 0
231          12    1 -1.00000  107.0527237546   59.5813156219   80.3179490966 0 0 0
232          12    7  0.00000  104.0040890494   57.7490718526   76.1236708268 0 0 0
233          12    4  0.00000  104.4368054464   61.3238963824   71.9666204180 0 0 0
234          12    8  0.00000  105.6065312947   62.8738221015   66.8203243999 0 0 0
235          12    2  0.00000  105.0350720199   61.1329140294   61.6348323903 0 0 0
236          12    9  0.00000  108.3182326087   62.7269566143   57.5193968380 0 0 0
237          12    4  0.00000  112.3664816177   63.0914502644   53.8149882023 0 0 0
238          12   10  1.00000  109.7785161291   64.7825994277   49.2668750620 0 0 0
239          12   11  0.00000  107.9849483150   62.9347784432   44.4068202160 0 0 0
240          12   12  0.00000  110.3162870676   61.5734661707   39.6141381363 0 0 0
241          13    1 -1.00000   47.6454986010   76.3147807934   10.2246769252 0 0 0
242          13    2  0.00000   46.7078531026   80.9279817103   13.0688285070 0 0 0
243          13    1 -1.00000   49.2014157685   85.8229024331   13.3229728524 0 0 0
244          13    3  0.00000   52.8052695835   88.4731021262   16.5224273790 0 0 0
245          13    4  0.00000   51.8111873534   90.9002551788   21.3563675502 0 0 0
246          13    5 -1.00000   51.7664321963   96.0745820325   23.2211859294 0 0 0
247          13    6  0.00000   49.4908792227  100.9902764917   22.2696725833 0 0 0
248          13    1 -1.00000   51.6991282613  105.9846829371   22.9239465641 0 0 0
249          13    7  0.00000   48.2829588750  110.2344473065   23.6453663650 0 0 0
250          13    2  0.00000   52.0851076156  113.3096127597   26.1628874453 0 0 0
251          13    1 -1.00000   55.7919887766  116.0884144288   29.1277681077 0 0 0
252          13    7  0.00000   59.8327213548  118.3998788156   32.0557151052 0 0 0
253          13    4  0.00000   59.4418033015  123.8624147935   31.5501799770 0 0 0
254          13    8  0.00000   58.9143506882  129.0184684477   33.3918627550 0 0 0
255          13    2  0.00000   60.7228306098  132.2833695442   37.4312284481 0 0 0
256          13    9  0.00000   57.9669746941  136.6883542734   39.2363026039 0 0 0
257          13    4  0.00000   54.6437291429  140.0850228552   42.0044248107 0 0 0
258          13   10  1.00000   57.6066989430  144.6988303913   42.4245128773 0 0 0
259          13   11  0.00000   60.5574896254  147.5930410554   46.0532647262 0 0 0
260          13   12  0.00000   59.4225048940  150.8495053008   50.3387475785 0 0 0
261          14    1 -1.00000  102.1609287619   88.8379011554   11.5542676630 0 0 0
262          14    2  0.00000  103.0366975654   94.2187514645   10.8266146175 0 0 0
263          14    1 -1.00000  101.8320946928   98.7085575370   13.7648566685 0 0 0
264          14    3  0.00000   98.0288762010  102.6794736411   13.8880816566 0 0 0
265          14    4  0.00000   97.7206675294  107.0979568341   10.6279800188 0 0 0
266          14    5 -1.00000   98.2799193001  112.5278972797   11.3034007870 0 0 0
267          14    6  0.00000  101.8196756265  116.3096986376   13.1515551741 0 0 0
268          14    1 -1.00000  100.7490267001  121.0700745469   15.6894807205 0 0 0
269          14    7  0.00000  104.5506612562  125.0363820457   15.4303735490 0 0 0
270          14    2  0.00000  100.9166685699  129.0584269843   16.3621147515 0 0 0
271          14    1 -1.00000   97.1361986183  133.0325954372   16.7710842516 0 0 0
272          14    7  0.00000   92.9598608030  136.5896700383   17.1566795521 0 0 0
273          14    4  0.00000   94.7647117662  141.1231717373   19.6939137442 0 0 0
274          14    8  0.00000   95.7632675712  146.5110863811   20.1715674843 0 0 0
275          14    2  0.00000   93.4138740810  151.3688092806   19.1087728384 0 0 0
276          14    9  0.00000   96.2601192714  156.0119978439   18.3363653799 0 0 0
277          14    4  0.00000   99.0316660743  160.2163219765   16.1259342212 0 0 0
278          14   10  1.00000   97.2780457984  164.5538927682   19.0161209895 0 0 0
279          14   11  0.00000   93.9631306786  168.9247257635   18.6178526439 0 0 0
280          14   12  0.00000   94.1749164528  173.8024150160   16.0838030506 0 0 0
281          15    1 -1.00000  105.3111413926  164.1244099379  112.2211602332 0 0 0
282          15    2  0.00000  105.4718423933  158.8787262642  110.5758705978 0 0 0
283          15    1 -1.00000  107.2426131611  156.3664593248  106.0156536389 0 0 0
284          15    3  0.00000  105.1813984880  154.3511727319  101.3318684154 0 0 0
285          15    4  0.00000  102.5768624192  149.5585111462  100.6297033408 0 0 0
286          15    5 -1.00000  103.6602014047  144.8422442476   98.0150499827 0 0 0
287          15    6  0.00000  107.4218224604  140.8424220303   97.7000892500 0 0 0
288          15    1 -1.00000  108.9667580909  137.9151530580   93.3077317666 0 0 0
289          15    7  0.00000  111.2228355453  132.9740653181   94.1719791074 0 0 0
290          15    2  0.00000  109.9078074674  131.1142350279   89.1657207794 0 0 0
291          15    1 -1.00000  108.0872246865  129.1804672186   84.3491613853 0 0 0
292          15    7  0.00000  105.9916108056  127.7484278774   79.4705420327 0 0 0
293          15    4  0.00000  109.2744993131  123.9576466779   77.2121570024 0 0 0
294          15    8  0.00000  110.4662643760  119.0517164021   75.0289403014 0 0 0
295          15    2  0.00000  108.3814434867  115.3427547197   71.5441477541 0 0 0
296          15    9  0.00000  109.6757018205  109.9980209878   71.6692145401 0 0 0
297          15    4  0.00000  109.7669798311  104.5963316302   72.6974360184 0 0 0
298          15   10  1.00000  111.1602162126  102.4036088838   67.8504015289 0 0 0
299          15   11  0.00000  108.9972889222   99.6906031059   63.5827550832 0 0 0
300          15   12  0.00000  107.3022598248   94.5418091400   62.6473888154 0 0 0
301          16    1 -1.00000   20.8302840478  -24.1004185454  108.4888352730 0 0 0
302          16    2  0.00000   18.3101664850  -19.8559090824  106.0633153518 0 0 0
303          16    1 -1.00000   19.1877074765  -14.4273293495  106.0073073938 0 0 0
304          16    3  0.00000   17.2963676847   -9.9010846459  108.4940266533 0 0 0
305          16    4  0.00000   12.6328936917   -7.2003108806  107.3967206864 0 0 0
306          16    5 -1.00000   11.3386541374   -2.2802573751  105.3059728588 0 0 0
307          16    6  0.00000   12.1551722152    0.8847738646  100.8829143604 0 0 0
308          16    1 -1.00000   12.5846524286    6.3608963647  100.6069377128 0 0 0
309          16    7  0.00000   11.4345303549    8.7939075041   95.8101853729 0 0 0
310          16    2  0.00000   10.2916428147   13.6399648278   98.1469409199 0 0 0
311          16    1 -1.00000    8.6649483906   18.2755947616  100.6204049620 0 0 0
312          16    7  0.00000    7.1132431864   22.6344776341  103.5928807083 0 0 0
313          16    4  0.00000    8.0379169273   27.1767731663  100.6331152158 0 0 0
314          16    8  0.00000    6.6404009914   31.8699638646   98.1279602748 0 0 0
315          16    2  0.00000    3.5419014362   36.3428488242   98.9274942916 0 0 0
316          16    9  0.00000    1.5343464611   39.4156886009   94.8306291817 0 0 0
317          16    4  0.00000   -1.6441051216   41.5546371754   90.8852314157 0 0 0
318          16   10  1.00000   -0.8335398945   46.9698083430   91.3968848509 0 0 0
319          16   11  0.00000   -3.2809898518   51.5198981922   93.2831860121 0 0 0
320          16   12  0.00000   -7.3714143166   54.7791642718   91.5791539348 0 0 0
321          17    1 -1.00000  139.3580610563   76.9075872712  196.2177848945 0 0 0
322          17    2  0.00000  133.9499199602   77.5505526953  195.4505786978 0 0 0
323          17    1 -1.00000  130.6892711795   81.9272131757  194.7755190207 0 0 0
324          17    3  0.00000  127.3216262788   85.0827758960  197.7670440066 0 0 0
325          17    4  0.00000  122.1773125737   83.9195028282  199.3255950238 0 0 0
326          17    5 -1.00000  117.1751464849   85.8812935634  198.1496186080 0 0 0
327          17    6  0.00000  113.8053244533   86.8637501026  193.9156311701 0 0 0
328          17    1 -1.00000  110.1546648259   90.9310020923  193.3002617383 0 0 0
329          17    7  0.00000  105.9504693960   90.1150965823  189.8491465582 0 0 0
330          17    2  0.00000  102.7615343011   93.8686281321  192.2971220208 0 0 0
331          17    1 -1.00000   99.4746451201   97.2487667594  195.1298320963 0 0 0
332          17    7  0.00000   96.6142550018  100.6712810103  198.3466357231 0 0 0
333          17    4  0.00000   92.9042039801  103.2854387923  195.2402902003 0 0 0
334          17    8  0.00000   87.8404539649  104.8607399104  193.7802377457 0 0 0
335          17    2  0.00000   83.1356125372  106.6177506476  196.0216735377 0 0 0
336          17    9  0.00000   78.2258467901  106.0488850214  193.6076484325 0 0 0
337          17    4  0.00000   73.3067549555  104.2002670119  191.9862397928 0 0 0
338          17   10  1.00000   70.2284868832  108.7544471201  191.8231655246 0 0 0
339          17   11  0.00000   66.2778062660  111.3707203763  194.6157804121 0 0 0
340          17   12  0.00000   60.8667042654  110.6950787594  195.3379968232 0 0 0
341          18    1 -1.00000  102.8615104652   68.2662232547  105.5310298282 0 0 0
342          18    2  0.00000  104.2308401475   73.4889145495  106.5790908283 0 0 0
343          18    1 -1.00000  101.3519211030   78.0146479726  107.7924560324 0 0 0
344          18    3  0.00000   99.3849987162   82.4769316358  105.2494124163 0 0 0
345          18    4  0.00000  102.1775223475   86.9893983981  103.8052155852 0 0 0
346          18    5 -1.00000  102.2028665479   92.2637196279  105.3653765504 0 0 0
347          18    6  0.00000  102.7845451107   95.4519101225  109.8088731938 0 0 0
348          18    1 -1.00000  100.3278464311  100.2383598772  110.9503916315 0 0 0
349          18    7  0.00000  102.8252754802  103.6346613127  114.4829744972 0 0 0
350          18    2  0.00000  100.2767207738  108.0996989111  112.5286976096 0 0 0