#LAMMPS data file generated on 2024-01-24 via gen_data.py, version 1 May 2020

20 atoms
12 atom types
19 bonds
17 bond types

0.0000000000000000e+00   7.2977553183094301e+02    xlo xhi
0.0000000000000000e+00   7.2977553183094301e+02    ylo yhi
0.0000000000000000e+00   7.2977553183094301e+02    zlo zhi

Masses

1  129.08250  # E
2  128.08260  # Q
3  147.18000  # F
4  87.06820  # S
5  115.08440  # D
6  114.08450  # N
7  113.18460  # L
8  101.08630  # T
9  57.04220  # G
10 156.17880  # R
11 163.17780  # Y
12 99.05650  # V

Atoms

1             1    1 -1.00000  159.2146730185  164.2328270968  530.1570660895 0 0 0
2             1    2  0.00000  161.0219183798  160.2081830940  533.4412866752 0 0 0
3             1    1 -1.00000  158.3239552797  157.0373240984  537.0355344881 0 0 0
4             1    3  0.00000  162.9323988988  154.3014964752  538.2693673884 0 0 0
5             1    4  0.00000  161.0547429027  149.1628385870  537.7096048771 0 0 0
6             1    5 -1.00000  159.6420375975  143.8467894210  537.6948067587 0 0 0
7             1    6  0.00000  156.7423870834  139.9792511027  540.3168642053 0 0 0
8             1    1 -1.00000  160.8504671311  138.7890737064  543.7754172391 0 0 0
9             1    7  0.00000  162.9347845524  133.7713554820  544.6284651316 0 0 0
10            1    2  0.00000  161.6241563548  128.5812348717  545.8924602972 0 0 0
11            1    1 -1.00000  160.6573025642  123.7413989062  548.3192842656 0 0 0
12            1    7  0.00000  159.8009216187  120.1276674476  552.3754088473 0 0 0
13            1    4  0.00000  162.0797485551  120.4042783914  557.3736605596 0 0 0
14            1    8  0.00000  164.0316985036  115.3025727341  556.7312854474 0 0 0
15            1    2  0.00000  164.8931512687  110.0936788854  558.2741781870 0 0 0
16            1    9  0.00000  168.1932184193  105.7673516997  557.4750668780 0 0 0
17            1    4  0.00000  173.4630525673  104.9103407314  558.7951525771 0 0 0
18            1   10  1.00000  174.4129480094  102.9296833670  563.8384694473 0 0 0
19            1   11  0.00000  176.4695590461   97.8317298748  564.0323514594 0 0 0
20            1   12  0.00000  179.4820257369   93.2380892333  564.2797359658 0 0 0

Bonds

1  1 3 4
2  2 12 13
3  3 8 9
4  4 17 18
5  5 13 14
6  6 18 19
7  7 4 5
8  8 5 6
9  9 14 15
10 10 9 10
11 11 1 2
12 12 10 11
13 13 19 20
14 14 6 7
15 15 15 16
16 12 2 3
17 3 11 12
18 16 7 8
19 17 16 17
